 Gaussian 16, Revision C.02,
 Gaussian 16:  AS64L-G16RevC.02  7-Dec-2021

 ----------------------------------------------------------------------
 # wb97xd/genecp scrf=(solvent=toluene,pcm) nosymm pop=(chelpg) scfcyc=
 300
 ----------------------------------------------------------------------

 -----------------------------
 4meborinane_metriazole_chelpg
 -----------------------------
 Symbolic Z-matrix:
 Charge =  0 Multiplicity = 1

                          Input orientation:
 ---------------------------------------------------------------------
 Center     Atomic      Atomic             Coordinates (Angstroms)
 Number     Number       Type             X           Y           Z
 ---------------------------------------------------------------------
      1          6           0        2.013907    0.403287   -0.144278
      2          1           0        1.138739    0.801404    0.339616
      3          6           0        3.231702   -0.038223    0.339083
      4          7           0        2.057389    0.211682   -1.473900
      5          7           0        3.241846   -0.303873   -1.832753
      6          7           0        3.939401   -0.469575   -0.760937
      7          6           0        1.036135    0.478367   -2.468401
      8          1           0        0.751102    1.530243   -2.439870
      9          1           0        1.459165    0.241302   -3.442270
     10          1           0        0.162206   -0.148166   -2.287244
     11          6           0        4.733478   -1.368666    2.182580
     12          6           0        3.536981    1.046573    2.840096
     13          6           0        4.805999   -1.587169    3.708933
     14          6           0        3.744029    0.606343    4.303902
     15          6           0        4.947065   -0.305626    4.523173
     16          1           0        5.633121   -2.274768    3.929353
     17          1           0        3.890130   -2.098445    4.036008
     18          1           0        3.821635    1.501001    4.936045
     19          1           0        2.844452    0.072637    4.639650
     20          1           0        5.029437   -0.551669    5.586644
     21          1           0        5.875007    0.214793    4.260258
     22          5           0        3.793517   -0.135894    1.800496
     23          6           0        4.606513    2.107514    2.465031
     24          1           0        4.498056    2.438003    1.427727
     25          1           0        4.483527    2.984098    3.112336
     26          1           0        5.628721    1.744924    2.592660
     27          6           0        2.164612    1.730356    2.739845
     28          1           0        1.341126    1.017815    2.857176
     29          1           0        2.065581    2.477541    3.536313
     30          1           0        2.038036    2.256469    1.790701
     31          6           0        4.255281   -2.683164    1.538488
     32          1           0        3.220574   -2.913656    1.815469
     33          1           0        4.314165   -2.643418    0.449802
     34          1           0        4.881192   -3.515085    1.884636
     35          6           0        6.150619   -1.060234    1.638276
     36          1           0        6.802514   -1.921228    1.831006
     37          1           0        6.132089   -0.882458    0.560994
     38          1           0        6.605591   -0.191148    2.120495
 ---------------------------------------------------------------------

 SCF Done:  E(RwB97XD) =  -659.595084921     A.U. after   16 cycles

 Alpha  occ. eigenvalues --  -14.53155 -14.49352 -14.45531 -10.33747 -10.33317
 Alpha  occ. eigenvalues --  -10.29382 -10.27365 -10.27279 -10.27078 -10.27013
 Alpha  occ. eigenvalues --  -10.26808 -10.26633 -10.26612 -10.26185 -10.25724
 Alpha  occ. eigenvalues --   -6.84522  -1.21387  -1.02644  -0.92869  -0.90852
 Alpha  occ. eigenvalues --   -0.89063  -0.84725  -0.83909  -0.78292  -0.76979
 Alpha  occ. eigenvalues --   -0.76311  -0.73296  -0.70215  -0.68916  -0.65578
 Alpha  occ. eigenvalues --   -0.63188  -0.62379  -0.59383  -0.57242  -0.55163
 Alpha  occ. eigenvalues --   -0.54405  -0.53042  -0.52363  -0.51840  -0.51068
 Alpha  occ. eigenvalues --   -0.50713  -0.49954  -0.49757  -0.48014  -0.47063
 Alpha  occ. eigenvalues --   -0.46211  -0.45768  -0.44287  -0.43560  -0.42700
 Alpha  occ. eigenvalues --   -0.41802  -0.40663  -0.39931  -0.39727  -0.38924
 Alpha  occ. eigenvalues --   -0.37661  -0.36337  -0.35453  -0.35198  -0.33095
 Alpha virt. eigenvalues --    0.02619   0.03690   0.04494   0.04736   0.05426
 Alpha virt. eigenvalues --    0.05966   0.06107   0.06800   0.07165   0.07537
 Alpha virt. eigenvalues --    0.07567   0.08408   0.08713   0.08883   0.09468

 Mulliken charges:
               1
     1  C   -0.676046
     2  H    0.249585
     3  C   -0.621016
     4  N    0.367028
     5  N    0.104106
     6  N   -0.205090
     7  C   -0.362095
     8  H    0.196675
     9  H    0.215700
    10  H    0.201536
    11  C    0.139097
    12  C    0.176142
    13  C   -0.187413
    14  C   -0.302150
    15  C   -0.402919
    16  H    0.173050
    17  H    0.170822
    18  H    0.162751
    19  H    0.168806
    20  H    0.224346
    21  H    0.141684
    22  B    0.617654
    23  C   -0.768331
    24  H    0.204818
    25  H    0.189593
    26  H    0.144124
    27  C   -0.549672
    28  H    0.171911
    29  H    0.169250
    30  H    0.149940
    31  C   -0.553355
    32  H    0.172591
    33  H    0.189337
    34  H    0.159778
    35  C   -0.758205
    36  H    0.173610
    37  H    0.208881
    38  H    0.143479
 Sum of Mulliken charges =  -0.00000

 Dipole moment (field-independent basis, Debye):
    X=             -4.7282    Y=              2.1719    Z=              0.2345  Tot=              5.2084
 Quadrupole moment (field-independent basis, Debye-Ang):
   XX=           -124.5041   YY=           -101.9808   ZZ=            -99.1461
   XY=              6.5425   XZ=              8.8955   YZ=             -2.4369

 ESP charges:
               1
     1  C   -0.426928
     2  H    0.189649
     3  C    0.174604
     4  N    0.589437
     5  N   -0.472005
     6  N   -0.139366
     7  C   -0.264694
     8  H    0.107919
     9  H    0.113069
    10  H    0.106915
    11  C    0.254655
    12  C    0.337364
    13  C   -0.179143
    14  C   -0.173202
    15  C    0.007905
    16  H    0.019872
    17  H    0.042171
    18  H    0.031743
    19  H    0.022431
    20  H    0.026214
    21  H   -0.014851
    22  B    0.135545
    23  C   -0.361060
    24  H    0.051673
    25  H    0.085949
    26  H    0.102449
    27  C   -0.295560
    28  H    0.046546
    29  H    0.056571
    30  H    0.063526
    31  C   -0.363309
    32  H    0.045104
    33  H    0.082108
    34  H    0.078118
    35  C    0.004516
    36  H    0.009791
    37  H   -0.094779
    38  H   -0.000946
 Sum of ESP charges =   0.00000

 Normal termination of Gaussian 16 at Tue Apr  9 16:52:21 2024.
