 Gaussian 16, Revision C.02,
 Gaussian 16:  AS64L-G16RevC.02  7-Dec-2021

 ----------------------------------------------------------------------
 # wb97xd/genecp scrf=(solvent=toluene,pcm) nosymm pop=(chelpg) scfcyc=
 300
 ----------------------------------------------------------------------

 ------------------------------
 bicyclo_dimethylaniline_chelpg
 ------------------------------
 Symbolic Z-matrix:
 Charge =  0 Multiplicity = 1

                          Input orientation:
 ---------------------------------------------------------------------
 Center     Atomic      Atomic             Coordinates (Angstroms)
 Number     Number       Type             X           Y           Z
 ---------------------------------------------------------------------
      1          6           0       -0.514216    0.965226    1.061498
      2          6           0        0.849111    1.229623    1.135883
      3          6           0        1.437832    2.329692    0.500647
      4          6           0        0.585753    3.247351   -0.164805
      5          6           0       -0.786539    2.980846   -0.236916
      6          6           0       -1.323687    1.843440    0.356833
      7          1           0       -0.933905    0.089066    1.542039
      8          1           0        1.487515    0.535164    1.674046
      9          1           0       -1.453675    3.667122   -0.742255
     10          1           0       -2.391066    1.662732    0.283706
     11          7           0        1.134117    4.403951   -0.743102
     12          6           0        1.923017    5.269624    0.120906
     13          1           0        2.508898    4.689511    0.831978
     14          1           0        2.613796    5.865131   -0.481147
     15          1           0        1.280783    5.957074    0.695311
     16          6           0        0.301640    5.170246   -1.647009
     17          1           0       -0.146498    4.517423   -2.397763
     18          1           0       -0.501392    5.724044   -1.132644
     19          1           0        0.929569    5.898466   -2.165236
     20          5           0        2.994688    2.311707    0.396569
     21          6           0        3.941571    1.749153    1.526242
     22          6           0        3.806565    2.603921   -0.922307
     23          6           0        5.024561    2.818270    1.807444
     24          1           0        3.414556    1.562239    2.468906
     25          6           0        4.503638    0.388630    1.032768
     26          6           0        5.005395    3.545251   -0.667430
     27          1           0        3.187535    3.050005   -1.704978
     28          6           0        4.212466    1.181159   -1.402630
     29          6           0        5.848695    3.237262    0.582592
     30          1           0        5.701848    2.459575    2.592365
     31          1           0        4.528116    3.705673    2.223576
     32          1           0        3.688591   -0.343848    1.088094
     33          1           0        5.276731    0.034671    1.726557
     34          6           0        5.058869    0.380856   -0.402766
     35          1           0        5.658964    3.559943   -1.549014
     36          1           0        4.609368    4.562438   -0.572482
     37          1           0        3.294429    0.619720   -1.621958
     38          1           0        4.752427    1.261137   -2.353978
     39          1           0        6.437123    4.124864    0.838843
     40          1           0        6.580282    2.458958    0.359529
     41          1           0        6.082216    0.759247   -0.411209
     42          1           0        5.127640   -0.656562   -0.747063
 ---------------------------------------------------------------------

 SCF Done:  E(RwB97XD) =  -703.728819754     A.U. after   16 cycles

 Alpha  occ. eigenvalues --  -14.44334 -10.32688 -10.30964 -10.30630 -10.28972
 Alpha  occ. eigenvalues --  -10.28800 -10.28106 -10.27818 -10.27454 -10.27354
 Alpha  occ. eigenvalues --  -10.27305 -10.27044 -10.26881 -10.26832 -10.26516
 Alpha  occ. eigenvalues --  -10.25310 -10.24889  -6.82684  -1.04894  -0.94853
 Alpha  occ. eigenvalues --   -0.92595  -0.86674  -0.85259  -0.84828  -0.84567
 Alpha  occ. eigenvalues --   -0.81364  -0.77750  -0.76396  -0.75188  -0.69693
 Alpha  occ. eigenvalues --   -0.67452  -0.66709  -0.65454  -0.63425  -0.61507
 Alpha  occ. eigenvalues --   -0.57967  -0.56590  -0.56373  -0.55818  -0.54877
 Alpha  occ. eigenvalues --   -0.53094  -0.51798  -0.51303  -0.50602  -0.49990
 Alpha  occ. eigenvalues --   -0.49733  -0.48760  -0.48320  -0.47322  -0.46689
 Alpha  occ. eigenvalues --   -0.46319  -0.45535  -0.44387  -0.43502  -0.42831
 Alpha  occ. eigenvalues --   -0.42179  -0.41263  -0.41114  -0.40324  -0.39916
 Alpha  occ. eigenvalues --   -0.36567  -0.36338  -0.34623  -0.33863  -0.32185
 Alpha  occ. eigenvalues --   -0.27535
 Alpha virt. eigenvalues --    0.02199   0.03694   0.04549   0.04740   0.05169
 Alpha virt. eigenvalues --    0.05958   0.06049   0.06256   0.06664   0.06904
 Alpha virt. eigenvalues --    0.07448   0.07826   0.08017   0.08664   0.08866

 Mulliken charges:
               1
     1  C   -0.506029
     2  C   -0.018160
     3  C   -0.034151
     4  C   -0.312334
     5  C   -0.056392
     6  C   -0.412402
     7  H    0.218129
     8  H    0.206659
     9  H    0.188375
    10  H    0.226544
    11  N    0.340615
    12  C   -0.456755
    13  H    0.128548
    14  H    0.203868
    15  H    0.177384
    16  C   -0.343324
    17  H    0.171014
    18  H    0.167458
    19  H    0.171984
    20  B   -0.167331
    21  C    0.253096
    22  C    0.308965
    23  C   -0.661582
    24  H    0.221375
    25  C   -0.586745
    26  C   -0.474089
    27  H    0.247120
    28  C   -0.761955
    29  C   -0.269695
    30  H    0.194394
    31  H    0.169247
    32  H    0.162417
    33  H    0.182850
    34  C   -0.242624
    35  H    0.186474
    36  H    0.109525
    37  H    0.202810
    38  H    0.188756
    39  H    0.207089
    40  H    0.129361
    41  H    0.139497
    42  H    0.200016
 Sum of Mulliken charges =  -0.00000

 Dipole moment (field-independent basis, Debye):
    X=             -0.4031    Y=              1.4581    Z=             -0.4551  Tot=              1.5798
 Quadrupole moment (field-independent basis, Debye-Ang):
   XX=           -110.0175   YY=            -97.2716   ZZ=           -113.1660
   XY=              0.8258   XZ=              1.4557   YZ=             -4.7130

 ESP charges:
               1
     1  C   -0.205161
     2  C   -0.000434
     3  C   -0.340912
     4  C    0.356526
     5  C   -0.270547
     6  C   -0.036241
     7  H    0.107176
     8  H    0.086840
     9  H    0.125925
    10  H    0.095891
    11  N   -0.237729
    12  C    0.001497
    13  H    0.016503
    14  H    0.074648
    15  H    0.016440
    16  C   -0.105401
    17  H    0.063725
    18  H    0.051953
    19  H    0.076925
    20  B    0.286314
    21  C    0.061717
    22  C    0.068301
    23  C   -0.014239
    24  H   -0.096384
    25  C    0.142593
    26  C    0.079919
    27  H   -0.115419
    28  C    0.113051
    29  C   -0.062280
    30  H   -0.001416
    31  H   -0.005069
    32  H   -0.038326
    33  H   -0.044873
    34  C   -0.144691
    35  H   -0.039671
    36  H   -0.033047
    37  H   -0.059363
    38  H   -0.021282
    39  H    0.000085
    40  H    0.009035
    41  H    0.017901
    42  H    0.019518
 Sum of ESP charges =   0.00000

 Normal termination of Gaussian 16 at Wed Apr 10 14:24:27 2024.
