 Gaussian 16, Revision C.02,
 Gaussian 16:  AS64L-G16RevC.02  7-Dec-2021

 ----------------------------------------------------------------------
 # wb97xd/genecp scrf=(solvent=toluene,pcm) nosymm pop=(chelpg) scfcyc=
 300
 ----------------------------------------------------------------------

 -----------------------
 bicyclo_xanthene_chelpg
 -----------------------
 Symbolic Z-matrix:
 Charge =  0 Multiplicity = 1

                          Input orientation:
 ---------------------------------------------------------------------
 Center     Atomic      Atomic             Coordinates (Angstroms)
 Number     Number       Type             X           Y           Z
 ---------------------------------------------------------------------
      1          6           0       -1.981008    1.676675    1.198710
      2          6           0       -0.748775    1.720526    1.852606
      3          6           0        0.083031    2.828516    1.729004
      4          6           0       -0.319605    3.923025    0.975041
      5          6           0       -1.560558    3.937371    0.338320
      6          6           0       -2.350786    2.801434    0.466414
      7          1           0       -0.422049    0.871544    2.445181
      8          1           0        1.047092    2.842083    2.224895
      9          1           0        0.338789    4.779370    0.898161
     10          6           0       -2.133552    5.136710   -0.406734
     11          8           0       -3.596249    2.736894   -0.121049
     12          6           0       -1.032802    6.052333   -0.948490
     13          1           0       -1.463903    6.925258   -1.442281
     14          1           0       -0.414274    6.433054   -0.133573
     15          1           0       -0.388881    5.529847   -1.660280
     16          6           0       -3.008622    5.942408    0.582963
     17          1           0       -2.395956    6.315323    1.408754
     18          1           0       -3.468745    6.793328    0.072540
     19          1           0       -3.804700    5.321355    1.000623
     20          6           0       -3.043770    4.610877   -1.515376
     21          6           0       -3.794202    3.466223   -1.265970
     22          6           0       -3.219752    5.258168   -2.739269
     23          6           0       -4.776794    2.993256   -2.156089
     24          6           0       -4.142110    4.785372   -3.657684
     25          1           0       -2.638298    6.138947   -2.978066
     26          6           0       -4.927792    3.677383   -3.362399
     27          1           0       -4.269780    5.293950   -4.606506
     28          1           0       -5.663960    3.342439   -4.081719
     29          5           0       -2.904209    0.410489    1.203658
     30          7           0       -5.527783    1.849719   -1.822702
     31          6           0       -6.376127    1.980316   -0.643971
     32          1           0       -7.250962    2.620290   -0.840962
     33          1           0       -6.733408    0.989656   -0.349932
     34          1           0       -5.812808    2.396689    0.188580
     35          6           0       -6.216832    1.184421   -2.909941
     36          1           0       -6.566203    0.211962   -2.553631
     37          1           0       -7.093709    1.742242   -3.278650
     38          1           0       -5.532384    1.014036   -3.742696
     39          6           0       -3.678977   -0.118432    2.462812
     40          1           0       -3.726619    0.616552    3.273167
     41          6           0       -5.123280   -0.496685    2.069924
     42          1           0       -5.639387   -0.933955    2.933796
     43          1           0       -5.656642    0.433148    1.837575
     44          6           0       -2.920027   -0.621745    0.023745
     45          1           0       -2.458728   -0.228551   -0.887851
     46          6           0       -5.245882   -1.451201    0.872719
     47          1           0       -5.043634   -2.471958    1.202867
     48          1           0       -6.289034   -1.458456    0.536203
     49          6           0       -4.346028   -1.093501   -0.323040
     50          1           0       -4.297646   -1.952250   -1.005150
     51          1           0       -4.808193   -0.276651   -0.884855
     52          6           0       -2.814305   -1.309009    2.974027
     53          1           0       -1.893760   -0.893499    3.403550
     54          1           0       -3.334895   -1.804419    3.802628
     55          6           0       -2.429750   -2.350624    1.908372
     56          1           0       -1.619790   -2.973491    2.302423
     57          6           0       -1.981574   -1.738904    0.572042
     58          1           0       -0.974702   -1.316608    0.692695
     59          1           0       -1.887606   -2.530097   -0.181026
     60          1           0       -3.264688   -3.030561    1.734608
 ---------------------------------------------------------------------

 SCF Done:  E(RwB97XD) =  -1126.71243223     A.U. after   16 cycles

 Alpha  occ. eigenvalues --  -19.29478 -14.44155 -10.34696 -10.34627 -10.32585
 Alpha  occ. eigenvalues --  -10.31674 -10.30457 -10.30137 -10.29765 -10.29631
 Alpha  occ. eigenvalues --  -10.28842 -10.28758 -10.28485 -10.28429 -10.28355
 Alpha  occ. eigenvalues --  -10.28341 -10.27930 -10.27752 -10.27546 -10.27464
 Alpha  occ. eigenvalues --  -10.27210 -10.27203 -10.27201 -10.26813 -10.26473
 Alpha  occ. eigenvalues --  -10.25588 -10.25234  -6.83545  -1.19705  -1.04677
 Alpha  occ. eigenvalues --   -0.97054  -0.96284  -0.92820  -0.91825  -0.86836
 Alpha  occ. eigenvalues --   -0.86767  -0.85389  -0.84931  -0.83690  -0.82398
 Alpha  occ. eigenvalues --   -0.81110  -0.79072  -0.77895  -0.76502  -0.75628
 Alpha  occ. eigenvalues --   -0.73527  -0.72873  -0.68779  -0.67075  -0.66960
 Alpha  occ. eigenvalues --   -0.65938  -0.64824  -0.64209  -0.63211  -0.60067
 Alpha  occ. eigenvalues --   -0.58605  -0.57974  -0.56760  -0.56260  -0.56020
 Alpha  occ. eigenvalues --   -0.55617  -0.55096  -0.54328  -0.53386  -0.52946
 Alpha  occ. eigenvalues --   -0.51960  -0.51466  -0.51000  -0.50804  -0.50120
 Alpha  occ. eigenvalues --   -0.49458  -0.49042  -0.48532  -0.48052  -0.47605
 Alpha  occ. eigenvalues --   -0.47265  -0.46958  -0.46738  -0.46102  -0.45568
 Alpha  occ. eigenvalues --   -0.45219  -0.44786  -0.44360  -0.43797  -0.43488
 Alpha  occ. eigenvalues --   -0.42689  -0.42224  -0.41872  -0.41550  -0.41334
 Alpha  occ. eigenvalues --   -0.40763  -0.39970  -0.39511  -0.36537  -0.35563
 Alpha  occ. eigenvalues --   -0.35028  -0.34611  -0.32706  -0.31358  -0.29889
 Alpha  occ. eigenvalues --   -0.27496
 Alpha virt. eigenvalues --    0.03703   0.04057   0.04434   0.04450   0.04949
 Alpha virt. eigenvalues --    0.05399   0.05459   0.05625   0.05876   0.05976
 Alpha virt. eigenvalues --    0.06318   0.06603   0.06945   0.07058   0.07190

 Mulliken charges:
               1
     1  C    0.462116
     2  C   -0.487000
     3  C   -0.547405
     4  C   -0.167930
     5  C    0.219580
     6  C   -0.043397
     7  H    0.206113
     8  H    0.241461
     9  H    0.168295
    10  C   -0.218627
    11  O    0.012261
    12  C   -0.488349
    13  H    0.167752
    14  H    0.166275
    15  H    0.206480
    16  C   -0.771261
    17  H    0.188833
    18  H    0.188107
    19  H    0.174265
    20  C    0.253646
    21  C   -0.034924
    22  C   -0.062354
    23  C    0.190724
    24  C   -0.719197
    25  H    0.154926
    26  C   -0.340403
    27  H    0.244866
    28  H    0.175476
    29  B   -0.269327
    30  N    0.290652
    31  C   -0.432265
    32  H    0.187132
    33  H    0.179847
    34  H    0.196009
    35  C   -0.372944
    36  H    0.161996
    37  H    0.152785
    38  H    0.187793
    39  C    0.238195
    40  H    0.262030
    41  C   -0.568916
    42  H    0.209042
    43  H    0.116923
    44  C    0.429039
    45  H    0.275137
    46  C   -0.250013
    47  H    0.134309
    48  H    0.193094
    49  C   -0.603851
    50  H    0.196737
    51  H    0.127728
    52  C   -0.596509
    53  H    0.141915
    54  H    0.195938
    55  C   -0.221079
    56  H    0.213182
    57  C   -0.826221
    58  H    0.192474
    59  H    0.187699
    60  H    0.131141
 Sum of Mulliken charges =  -0.00000

 Dipole moment (field-independent basis, Debye):
    X=             -0.5633    Y=              0.3612    Z=             -0.3519  Tot=              0.7560
 Quadrupole moment (field-independent basis, Debye-Ang):
   XX=           -158.6018   YY=           -159.9407   ZZ=           -166.3797
   XY=              2.5915   XZ=              7.6024   YZ=             -3.6090

 ESP charges:
               1
     1  C   -0.256135
     2  C   -0.092533
     3  C   -0.185135
     4  C   -0.103167
     5  C   -0.119139
     6  C    0.309165
     7  H    0.115783
     8  H    0.114064
     9  H    0.110690
    10  C    0.341085
    11  O   -0.361984
    12  C   -0.294388
    13  H    0.088613
    14  H    0.092224
    15  H    0.037068
    16  C   -0.206120
    17  H    0.040778
    18  H    0.040016
    19  H    0.051551
    20  C   -0.084033
    21  C    0.146903
    22  C   -0.133460
    23  C    0.116766
    24  C   -0.194687
    25  H    0.118562
    26  C   -0.161865
    27  H    0.125482
    28  H    0.126333
    29  B    0.442550
    30  N   -0.094840
    31  C   -0.104000
    32  H    0.010088
    33  H    0.097677
    34  H    0.112446
    35  C   -0.095454
    36  H    0.071302
    37  H    0.045898
    38  H    0.051751
    39  C   -0.090663
    40  H   -0.074763
    41  C    0.256924
    42  H   -0.042957
    43  H   -0.097792
    44  C   -0.176737
    45  H   -0.049273
    46  C   -0.344644
    47  H    0.052602
    48  H    0.058085
    49  C    0.380696
    50  H   -0.063094
    51  H   -0.177992
    52  C    0.154448
    53  H   -0.047961
    54  H   -0.036732
    55  C   -0.087722
    56  H    0.002812
    57  C    0.154639
    58  H   -0.052407
    59  H   -0.031749
    60  H   -0.005575
 Sum of ESP charges =  -0.00000

 Normal termination of Gaussian 16 at Wed Apr 10 17:15:19 2024.
