 Gaussian 16, Revision C.02,
 Gaussian 16:  AS64L-G16RevC.02  7-Dec-2021

 ----------------------------------------------------------------------
 # wb97xd/genecp scrf=(solvent=toluene,pcm) nosymm pop=(chelpg) scfcyc=
 300
 ----------------------------------------------------------------------

 --------------------------
 bicyclo_biphenylene_chelpg
 --------------------------
 Symbolic Z-matrix:
 Charge =  0 Multiplicity = 1

                          Input orientation:
 ---------------------------------------------------------------------
 Center     Atomic      Atomic             Coordinates (Angstroms)
 Number     Number       Type             X           Y           Z
 ---------------------------------------------------------------------
      1          6           0        1.876664    2.491392   -0.050779
      2          6           0        2.008603    2.519195   -1.461814
      3          6           0        1.686170    3.991329   -1.459136
      4          6           0        1.483680    3.945925   -0.061895
      5          6           0        1.573767    5.136600   -2.197287
      6          6           0        1.042214    5.037870    0.661341
      7          6           0        1.207408    6.281559   -1.457298
      8          1           0        1.744435    5.184364   -3.265363
      9          6           0        0.940526    6.237493   -0.099959
     10          1           0        1.101217    7.231189   -1.970775
     11          1           0        0.622234    7.151049    0.385704
     12          6           0        2.346948    1.414515   -2.186006
     13          1           0        2.460329    1.418615   -3.263786
     14          6           0        2.550941    0.228535   -1.433783
     15          1           0        2.806758   -0.688057   -1.954016
     16          6           0        2.451774    0.217891   -0.057504
     17          6           0        2.143775    1.380820    0.718995
     18          1           0        2.645015   -0.714283    0.464506
     19          5           0        2.335680    1.373274    2.267841
     20          7           0        0.692210    4.954096    2.011666
     21          6           0        0.359021    6.186361    2.698503
     22          1           0       -0.592007    6.628021    2.359833
     23          1           0        0.275646    5.977275    3.766606
     24          1           0        1.154822    6.920878    2.564555
     25          6           0       -0.212045    3.857780    2.329111
     26          1           0       -0.369384    3.816775    3.407624
     27          1           0       -1.189796    3.980329    1.839515
     28          1           0        0.207030    2.901069    2.014170
     29          6           0        3.006719    2.571346    3.028381
     30          1           0        2.976213    3.511492    2.469239
     31          6           0        2.250107    0.087275    3.167283
     32          1           0        1.726476   -0.744892    2.683126
     33          6           0        3.727970   -0.360097    3.376486
     34          1           0        3.764477   -1.165345    4.120776
     35          1           0        4.075365   -0.800762    2.434209
     36          6           0        4.490316    2.082831    3.033649
     37          1           0        4.829018    1.977199    1.994795
     38          1           0        5.118896    2.861710    3.480895
     39          6           0        2.443740    2.831434    4.439492
     40          1           0        3.141090    3.462894    5.004776
     41          1           0        1.536625    3.430243    4.318966
     42          6           0        1.496226    0.427645    4.470951
     43          1           0        1.437464   -0.461743    5.110492
     44          1           0        0.459953    0.678871    4.207581
     45          6           0        4.712250    0.756186    3.775420
     46          1           0        5.732573    0.408727    3.582225
     47          1           0        4.662269    0.934356    4.850640
     48          6           0        2.102228    1.584349    5.276392
     49          1           0        2.992372    1.226091    5.796891
     50          1           0        1.400235    1.871281    6.066736
 ---------------------------------------------------------------------

 SCF Done:  E(RwB97XD) =  -933.484956634     A.U. after   17 cycles

 Alpha  occ. eigenvalues --  -14.44995 -10.33471 -10.30978 -10.30965 -10.30612
 Alpha  occ. eigenvalues --  -10.30416 -10.30053 -10.29550 -10.29533 -10.29528
 Alpha  occ. eigenvalues --  -10.29074 -10.29035 -10.28902 -10.28842 -10.27729
 Alpha  occ. eigenvalues --  -10.27620 -10.27436 -10.27248 -10.27072 -10.26876
 Alpha  occ. eigenvalues --  -10.26831 -10.25477 -10.25110  -6.82880  -1.05612
 Alpha  occ. eigenvalues --   -1.00813  -0.94622  -0.92740  -0.90225  -0.86749
 Alpha  occ. eigenvalues --   -0.86036  -0.85364  -0.84639  -0.82313  -0.80225
 Alpha  occ. eigenvalues --   -0.77893  -0.76541  -0.76329  -0.72536  -0.71375
 Alpha  occ. eigenvalues --   -0.67102  -0.66863  -0.65528  -0.65243  -0.63368
 Alpha  occ. eigenvalues --   -0.61866  -0.58414  -0.57998  -0.57534  -0.56428
 Alpha  occ. eigenvalues --   -0.55750  -0.55361  -0.54642  -0.53433  -0.52042
 Alpha  occ. eigenvalues --   -0.51286  -0.51199  -0.50519  -0.50148  -0.49705
 Alpha  occ. eigenvalues --   -0.49469  -0.48511  -0.48346  -0.47933  -0.47029
 Alpha  occ. eigenvalues --   -0.46629  -0.45536  -0.44541  -0.43795  -0.43228
 Alpha  occ. eigenvalues --   -0.42629  -0.42346  -0.41869  -0.41323  -0.41079
 Alpha  occ. eigenvalues --   -0.39973  -0.39890  -0.37745  -0.37103  -0.36563
 Alpha  occ. eigenvalues --   -0.35095  -0.34274  -0.32472  -0.29045  -0.26908
 Alpha virt. eigenvalues --    0.00243   0.01438   0.03696   0.04394   0.04453
 Alpha virt. eigenvalues --    0.05133   0.05594   0.05648   0.06155   0.06607
 Alpha virt. eigenvalues --    0.06810   0.07039   0.07145   0.07544   0.08209

 Mulliken charges:
               1
     1  C    0.085497
     2  C    0.210356
     3  C    0.244108
     4  C   -0.177570
     5  C   -0.353852
     6  C   -0.195803
     7  C   -0.460665
     8  H    0.202035
     9  C   -0.214769
    10  H    0.235201
    11  H    0.192414
    12  C   -0.231709
    13  H    0.229067
    14  C   -0.247883
    15  H    0.233845
    16  C   -0.218966
    17  C    0.201380
    18  H    0.221383
    19  B   -0.850439
    20  N    0.300187
    21  C   -0.361657
    22  H    0.167622
    23  H    0.160387
    24  H    0.169993
    25  C   -0.387090
    26  H    0.182087
    27  H    0.206658
    28  H    0.102235
    29  C    0.633641
    30  H    0.328487
    31  C    0.236162
    32  H    0.223442
    33  C   -0.569706
    34  H    0.189255
    35  H    0.167777
    36  C   -0.772632
    37  H    0.226869
    38  H    0.198560
    39  C   -0.582853
    40  H    0.196321
    41  H    0.060231
    42  C   -0.711378
    43  H    0.197777
    44  H    0.179845
    45  C   -0.248646
    46  H    0.210487
    47  H    0.143367
    48  C   -0.291429
    49  H    0.132293
    50  H    0.208074
 Sum of Mulliken charges =  -0.00000

 Dipole moment (field-independent basis, Debye):
    X=             -0.8952    Y=              1.1224    Z=              0.7957  Tot=              1.6415
 Quadrupole moment (field-independent basis, Debye-Ang):
   XX=           -149.0232   YY=           -128.3920   ZZ=           -135.1932
   XY=             -6.5992   XZ=             -3.3880   YZ=              5.7784

 ESP charges:
               1
     1  C    0.189024
     2  C    0.013135
     3  C    0.114454
     4  C   -0.242626
     5  C   -0.253845
     6  C    0.400801
     7  C   -0.030550
     8  H    0.139093
     9  C   -0.340366
    10  H    0.102371
    11  H    0.148862
    12  C   -0.187832
    13  H    0.135544
    14  C   -0.082526
    15  H    0.090655
    16  C   -0.128492
    17  C   -0.241107
    18  H    0.100475
    19  B    0.338000
    20  N   -0.215286
    21  C   -0.243369
    22  H    0.085494
    23  H    0.100417
    24  H    0.104027
    25  C    0.169587
    26  H    0.053801
    27  H   -0.032553
    28  H   -0.083324
    29  C    0.177699
    30  H   -0.175577
    31  C   -0.017962
    32  H   -0.064620
    33  C    0.171896
    34  H   -0.048558
    35  H   -0.043981
    36  C    0.161199
    37  H   -0.083169
    38  H   -0.034057
    39  C   -0.120292
    40  H    0.007264
    41  H    0.025489
    42  C   -0.019283
    43  H    0.002162
    44  H   -0.013923
    45  C   -0.134770
    46  H    0.009167
    47  H    0.016221
    48  C   -0.034010
    49  H    0.008453
    50  H    0.006788
 Sum of ESP charges =   0.00000

 Normal termination of Gaussian 16 at Thu Apr 11 14:50:35 2024.
