 Gaussian 16, Revision C.02,
 Gaussian 16:  AS64L-G16RevC.02  7-Dec-2021

 ----------------------------------------------------------------------
 # wb97xd/genecp scrf=(solvent=toluene,pcm) nosymm pop=(chelpg) scfcyc=
 300
 ----------------------------------------------------------------------

 -----------------------------
 bicyclo_naphtoxanthene_chelpg
 -----------------------------
 Symbolic Z-matrix:
 Charge =  0 Multiplicity = 1

                          Input orientation:
 ---------------------------------------------------------------------
 Center     Atomic      Atomic             Coordinates (Angstroms)
 Number     Number       Type             X           Y           Z
 ---------------------------------------------------------------------
      1          6           0       -2.841360    2.180951    1.667330
      2          6           0       -1.924983    2.565042    2.677907
      3          6           0       -1.035661    3.601749    2.519038
      4          6           0       -1.032668    4.351005    1.322779
      5          6           0       -1.975595    4.030496    0.324496
      6          6           0       -2.862681    2.957191    0.522865
      7          1           0       -1.913883    1.997188    3.603697
      8          1           0       -0.331762    3.850506    3.305748
      9          6           0       -2.015295    4.763100   -0.894154
     10          8           0       -3.812021    2.659906   -0.416324
     11          6           0       -3.007607    4.416576   -1.856501
     12          6           0       -3.914973    3.384322   -1.571389
     13          6           0       -3.082481    5.118243   -3.077755
     14          6           0       -4.951769    3.068749   -2.443065
     15          6           0       -4.090319    4.754955   -3.987822
     16          6           0       -5.000234    3.772357   -3.665775
     17          1           0       -4.164530    5.270341   -4.939184
     18          1           0       -5.786379    3.535712   -4.372062
     19          5           0       -3.683283    0.878308    1.819936
     20          7           0       -5.892121    2.080464   -2.084079
     21          6           0       -6.739997    2.445054   -0.953352
     22          1           0       -7.438392    3.257086   -1.210443
     23          1           0       -7.322618    1.573135   -0.645872
     24          1           0       -6.129833    2.757387   -0.106682
     25          6           0       -6.652012    1.483392   -3.164557
     26          1           0       -7.157890    0.593881   -2.781545
     27          1           0       -7.421062    2.153885   -3.583295
     28          1           0       -5.982238    1.172090   -3.968052
     29          6           0       -2.133415    6.166254   -3.311292
     30          1           0       -2.182856    6.706140   -4.251096
     31          6           0       -1.196304    6.494425   -2.382318
     32          1           0       -0.493365    7.297829   -2.577093
     33          6           0       -1.115853    5.797735   -1.134189
     34          6           0       -0.163453    6.112934   -0.116229
     35          6           0       -0.126545    5.426882    1.059542
     36          1           0        0.539198    6.920675   -0.294356
     37          1           0        0.603541    5.685814    1.819048
     38          6           0       -4.505134    0.504666    3.105260
     39          1           0       -4.462239    1.279157    3.879364
     40          6           0       -3.737686   -0.266949    0.744007
     41          1           0       -3.184268   -0.016105   -0.166024
     42          6           0       -3.966022   -0.809917    3.720195
     43          1           0       -4.655547   -1.170021    4.494206
     44          1           0       -3.030534   -0.565626    4.239346
     45          6           0       -3.677008   -1.943543    2.720480
     46          1           0       -4.596970   -2.480781    2.483542
     47          1           0       -3.023086   -2.678668    3.201557
     48          6           0       -3.021296   -1.467503    1.418083
     49          1           0       -2.969411   -2.303192    0.709808
     50          1           0       -1.980314   -1.182320    1.624765
     51          6           0       -5.202089   -0.552096    0.337073
     52          1           0       -5.487046    0.236167   -0.365031
     53          1           0       -5.250754   -1.493634   -0.225412
     54          6           0       -5.973077    0.432669    2.601861
     55          1           0       -6.257100    1.428241    2.233683
     56          1           0       -6.639669    0.224072    3.447429
     57          6           0       -6.221533   -0.598602    1.491403
     58          1           0       -6.246503   -1.596441    1.933653
     59          1           0       -7.225255   -0.437014    1.082215
 ---------------------------------------------------------------------

 SCF Done:  E(RwB97XD) =  -1238.62481441     A.U. after   18 cycles

 Alpha  occ. eigenvalues --  -19.31002 -14.44291 -10.36384 -10.35953 -10.32853
 Alpha  occ. eigenvalues --  -10.30974 -10.30893 -10.30864 -10.30734 -10.30606
 Alpha  occ. eigenvalues --  -10.30470 -10.30346 -10.30344 -10.29866 -10.29659
 Alpha  occ. eigenvalues --  -10.29599 -10.29564 -10.29534 -10.29517 -10.29110
 Alpha  occ. eigenvalues --  -10.28727 -10.27581 -10.27437 -10.27281 -10.27237
 Alpha  occ. eigenvalues --  -10.26887 -10.26872 -10.26573 -10.25460 -10.24952
 Alpha  occ. eigenvalues --   -6.83127  -1.21176  -1.04888  -1.00384  -0.97957
 Alpha  occ. eigenvalues --   -0.93859  -0.92658  -0.91512  -0.89542  -0.87336
 Alpha  occ. eigenvalues --   -0.86662  -0.85879  -0.85189  -0.83343  -0.81546
 Alpha  occ. eigenvalues --   -0.80729  -0.77826  -0.76338  -0.76048  -0.75740
 Alpha  occ. eigenvalues --   -0.73592  -0.72868  -0.69845  -0.66877  -0.66422
 Alpha  occ. eigenvalues --   -0.66268  -0.65517  -0.64552  -0.63187  -0.61261
 Alpha  occ. eigenvalues --   -0.60887  -0.59098  -0.57999  -0.57304  -0.57037
 Alpha  occ. eigenvalues --   -0.56708  -0.55391  -0.55060  -0.54749  -0.54064
 Alpha  occ. eigenvalues --   -0.52894  -0.52328  -0.51758  -0.51459  -0.50856
 Alpha  occ. eigenvalues --   -0.50601  -0.49941  -0.49365  -0.49338  -0.48466
 Alpha  occ. eigenvalues --   -0.48296  -0.48106  -0.47551  -0.47284  -0.46750
 Alpha  occ. eigenvalues --   -0.46260  -0.46004  -0.45514  -0.45031  -0.43303
 Alpha  occ. eigenvalues --   -0.42908  -0.42162  -0.42100  -0.41875  -0.41392
 Alpha  occ. eigenvalues --   -0.41202  -0.40174  -0.39899  -0.39805  -0.37722
 Alpha  occ. eigenvalues --   -0.36508  -0.35147  -0.34714  -0.34338  -0.33416
 Alpha  occ. eigenvalues --   -0.31266  -0.28487  -0.25519
 Alpha virt. eigenvalues --    0.00386   0.01161   0.03505   0.03724   0.04310
 Alpha virt. eigenvalues --    0.04360   0.04693   0.05195   0.05306   0.05377
 Alpha virt. eigenvalues --    0.06189   0.06486   0.06645   0.06765   0.07462

 Mulliken charges:
               1
     1  C    0.207175
     2  C   -0.246799
     3  C   -0.393258
     4  C   -0.022757
     5  C    0.269870
     6  C   -0.237741
     7  H    0.246246
     8  H    0.215008
     9  C    0.052130
    10  O    0.089551
    11  C    0.252036
    12  C   -0.204230
    13  C    0.354318
    14  C   -0.025204
    15  C   -0.463116
    16  C   -0.283385
    17  H    0.203079
    18  H    0.197609
    19  B   -0.139176
    20  N    0.288739
    21  C   -0.437239
    22  H    0.182531
    23  H    0.165278
    24  H    0.184218
    25  C   -0.374471
    26  H    0.176107
    27  H    0.145862
    28  H    0.191947
    29  C   -0.468421
    30  H    0.188375
    31  C   -0.392255
    32  H    0.197975
    33  C    0.212935
    34  C   -0.447491
    35  C   -0.413468
    36  H    0.192280
    37  H    0.207572
    38  C    0.345841
    39  H    0.237992
    40  C    0.591901
    41  H    0.267156
    42  C   -0.636571
    43  H    0.176193
    44  H    0.162834
    45  C   -0.236776
    46  H    0.130313
    47  H    0.210777
    48  C   -0.775900
    49  H    0.180763
    50  H    0.191157
    51  C   -0.802687
    52  H    0.118110
    53  H    0.189741
    54  C   -0.786442
    55  H    0.156575
    56  H    0.214671
    57  C   -0.142763
    58  H    0.143389
    59  H    0.191895
 Sum of Mulliken charges =  -0.00000

 Dipole moment (field-independent basis, Debye):
    X=             -0.8502    Y=              0.6069    Z=             -0.8380  Tot=              1.3391
 Quadrupole moment (field-independent basis, Debye-Ang):
   XX=           -166.4352   YY=           -175.9696   ZZ=           -171.1376
   XY=              4.6891   XZ=             11.9371   YZ=             -7.0671

 ESP charges:
               1
     1  C   -0.470904
     2  C    0.054328
     3  C   -0.372805
     4  C    0.267310
     5  C   -0.139180
     6  C    0.398429
     7  H    0.090329
     8  H    0.151883
     9  C    0.014396
    10  O   -0.230165
    11  C   -0.029436
    12  C    0.116856
    13  C    0.173564
    14  C    0.069420
    15  C   -0.357290
    16  C   -0.056505
    17  H    0.163991
    18  H    0.119099
    19  B    0.520098
    20  N   -0.162134
    21  C    0.005243
    22  H   -0.004563
    23  H    0.088984
    24  H    0.035413
    25  C   -0.154316
    26  H    0.086512
    27  H    0.063564
    28  H    0.069354
    29  C   -0.176858
    30  H    0.126122
    31  C   -0.227816
    32  H    0.135899
    33  C    0.144614
    34  C   -0.187801
    35  C   -0.245266
    36  H    0.135993
    37  H    0.143589
    38  C   -0.087836
    39  H   -0.064066
    40  C   -0.176319
    41  H   -0.053988
    42  C    0.133880
    43  H   -0.036281
    44  H   -0.031388
    45  C   -0.135498
    46  H    0.014100
    47  H    0.012653
    48  C    0.134261
    49  H   -0.022706
    50  H   -0.054638
    51  C    0.364311
    52  H   -0.179651
    53  H   -0.071446
    54  C    0.119155
    55  H   -0.059910
    56  H   -0.012266
    57  C   -0.187810
    58  H    0.019249
    59  H    0.016241
 Sum of ESP charges =   0.00000

 Normal termination of Gaussian 16 at Thu Apr 11 14:15:13 2024.
