 Gaussian 16, Revision C.02,
 Gaussian 16:  AS64L-G16RevC.02  7-Dec-2021

 ----------------------------------------------------------------------
 # wb97xd/genecp scrf=(solvent=toluene,pcm) nosymm pop=(chelpg) scfcyc=
 300
 ----------------------------------------------------------------------

 ---------------------------
 bicyclo_dibenzofuran_chelpg
 ---------------------------
 Symbolic Z-matrix:
 Charge =  0 Multiplicity = 1

                          Input orientation:
 ---------------------------------------------------------------------
 Center     Atomic      Atomic             Coordinates (Angstroms)
 Number     Number       Type             X           Y           Z
 ---------------------------------------------------------------------
      1          6           0        2.266110    2.225131    0.174683
      2          6           0        2.074086    2.617297   -1.152268
      3          8           0        1.667289    3.101587    1.033545
      4          6           0        1.301436    3.844465   -1.093546
      5          6           0        1.092237    4.077529    0.263742
      6          6           0        0.755755    4.705735   -2.046959
      7          6           0        0.346932    5.153384    0.767663
      8          6           0        0.014536    5.776802   -1.582674
      9          1           0        0.900076    4.535635   -3.106966
     10          6           0       -0.181182    5.999833   -0.213342
     11          1           0       -0.427318    6.471810   -2.287791
     12          1           0       -0.763535    6.860955    0.086903
     13          6           0        2.595725    1.827481   -2.174047
     14          1           0        2.469919    2.109391   -3.213425
     15          6           0        3.272739    0.665264   -1.829430
     16          1           0        3.683144    0.032178   -2.607678
     17          6           0        3.422861    0.294122   -0.489936
     18          6           0        2.940556    1.071032    0.573227
     19          1           0        3.949992   -0.626790   -0.261726
     20          5           0        3.204390    0.680076    2.059963
     21          7           0        0.112050    5.305664    2.138380
     22          6           0        1.277589    5.281649    3.015578
     23          1           0        1.861870    6.211858    2.940103
     24          1           0        0.941026    5.167393    4.048123
     25          1           0        1.922482    4.439754    2.777502
     26          6           0       -0.850906    6.316801    2.526471
     27          1           0       -1.061533    6.202920    3.591351
     28          1           0       -0.489266    7.344542    2.358992
     29          1           0       -1.786139    6.180615    1.980455
     30          6           0        3.321272    1.699609    3.251674
     31          1           0        3.377005    2.739610    2.918263
     32          6           0        3.235360   -0.805973    2.566495
     33          1           0        3.213724   -1.541890    1.754872
     34          6           0        4.483072   -1.086183    3.430687
     35          1           0        4.407514   -2.082864    3.883304
     36          1           0        5.348073   -1.125227    2.756156
     37          6           0        4.599285    1.404962    4.069417
     38          1           0        5.461948    1.678417    3.447853
     39          1           0        4.636801    2.066395    4.944014
     40          6           0        4.769039   -0.050074    4.528491
     41          1           0        5.794249   -0.190008    4.887504
     42          1           0        4.129955   -0.239820    5.392320
     43          6           0        1.993366    1.539997    4.043225
     44          1           0        2.027136    2.167250    4.942927
     45          1           0        1.186846    1.944635    3.420022
     46          6           0        1.878024   -0.937597    3.321563
     47          1           0        1.072103   -0.844798    2.581907
     48          1           0        1.793427   -1.949352    3.736096
     49          6           0        1.642682    0.094621    4.437469
     50          1           0        0.588466    0.056216    4.731344
     51          1           0        2.204781   -0.194159    5.326618
 ---------------------------------------------------------------------

 SCF Done:  E(RwB97XD) =  -1008.78142304     A.U. after   16 cycles

 Alpha  occ. eigenvalues --  -19.31342 -14.44920 -10.35201 -10.34700 -10.33517
 Alpha  occ. eigenvalues --  -10.30768 -10.30322 -10.30207 -10.30080 -10.30044
 Alpha  occ. eigenvalues --  -10.29760 -10.29031 -10.28937 -10.28852 -10.28783
 Alpha  occ. eigenvalues --  -10.27896 -10.27733 -10.27394 -10.27281 -10.27213
 Alpha  occ. eigenvalues --  -10.27029 -10.26876 -10.25594 -10.25337  -6.83295
 Alpha  occ. eigenvalues --   -1.22248  -1.05253  -0.97160  -0.95881  -0.92783
 Alpha  occ. eigenvalues --   -0.88983  -0.86835  -0.86716  -0.85457  -0.84250
 Alpha  occ. eigenvalues --   -0.83425  -0.81247  -0.77976  -0.76528  -0.76396
 Alpha  occ. eigenvalues --   -0.73391  -0.72025  -0.69412  -0.66987  -0.66651
 Alpha  occ. eigenvalues --   -0.65947  -0.63364  -0.62674  -0.61200  -0.59787
 Alpha  occ. eigenvalues --   -0.58230  -0.57290  -0.56784  -0.56199  -0.55021
 Alpha  occ. eigenvalues --   -0.54740  -0.54521  -0.53127  -0.51945  -0.51305
 Alpha  occ. eigenvalues --   -0.51065  -0.50503  -0.50175  -0.49872  -0.48914
 Alpha  occ. eigenvalues --   -0.48516  -0.47643  -0.47045  -0.46432  -0.45960
 Alpha  occ. eigenvalues --   -0.45262  -0.45012  -0.44697  -0.44552  -0.43441
 Alpha  occ. eigenvalues --   -0.43010  -0.42428  -0.41443  -0.41329  -0.40580
 Alpha  occ. eigenvalues --   -0.40049  -0.38301  -0.36635  -0.35809  -0.35017
 Alpha  occ. eigenvalues --   -0.33713  -0.31877  -0.30055  -0.27651
 Alpha virt. eigenvalues --    0.00556   0.03694   0.03921   0.04389   0.04514
 Alpha virt. eigenvalues --    0.05299   0.05479   0.05570   0.06343   0.06549
 Alpha virt. eigenvalues --    0.06754   0.07002   0.07147   0.07639   0.08090

 Mulliken charges:
               1
     1  C   -0.158420
     2  C    0.416759
     3  O    0.067811
     4  C    0.749079
     5  C   -0.270281
     6  C   -0.751886
     7  C   -0.233932
     8  C   -0.453536
     9  H    0.174448
    10  C   -0.111159
    11  H    0.238239
    12  H    0.184081
    13  C   -0.260478
    14  H    0.209649
    15  C   -0.625480
    16  H    0.240204
    17  C   -0.378349
    18  C    0.182825
    19  H    0.207828
    20  B    0.261678
    21  N    0.203562
    22  C   -0.531271
    23  H    0.187311
    24  H    0.186207
    25  H    0.083435
    26  C   -0.343205
    27  H    0.177627
    28  H    0.163705
    29  H    0.161289
    30  C    0.433954
    31  H    0.272137
    32  C    0.395032
    33  H    0.202935
    34  C   -0.804246
    35  H    0.173405
    36  H    0.166052
    37  C   -0.795593
    38  H    0.179535
    39  H    0.176737
    40  C   -0.201691
    41  H    0.212213
    42  H    0.137857
    43  C   -0.596207
    44  H    0.193104
    45  H    0.230254
    46  C   -0.652653
    47  H    0.196317
    48  H    0.203680
    49  C   -0.431897
    50  H    0.202801
    51  H    0.128535
 Sum of Mulliken charges =  -0.00000

 Dipole moment (field-independent basis, Debye):
    X=             -0.2412    Y=              0.9308    Z=              0.3323  Tot=              1.0173
 Quadrupole moment (field-independent basis, Debye-Ang):
   XX=           -150.4161   YY=           -136.1274   ZZ=           -138.7978
   XY=             -7.7552   XZ=             -2.0641   YZ=              5.7954

 ESP charges:
               1
     1  C    0.286648
     2  C    0.014383
     3  O   -0.209465
     4  C    0.015222
     5  C    0.015333
     6  C   -0.193820
     7  C    0.318725
     8  C   -0.152730
     9  H    0.134231
    10  C   -0.230721
    11  H    0.121905
    12  H    0.141243
    13  C   -0.141344
    14  H    0.131236
    15  C   -0.160023
    16  H    0.110332
    17  C   -0.043758
    18  C   -0.338141
    19  H    0.092512
    20  B    0.429735
    21  N   -0.403075
    22  C    0.140401
    23  H   -0.009135
    24  H    0.039651
    25  H    0.017045
    26  C   -0.096129
    27  H    0.093996
    28  H    0.057372
    29  H    0.066586
    30  C   -0.136707
    31  H   -0.043107
    32  C   -0.099802
    33  H   -0.032636
    34  C    0.089322
    35  H   -0.026753
    36  H   -0.030412
    37  C    0.082465
    38  H   -0.037690
    39  H   -0.017723
    40  C   -0.072980
    41  H    0.003670
    42  H    0.005068
    43  C    0.246351
    44  H   -0.063089
    45  H   -0.082736
    46  C    0.158481
    47  H   -0.063102
    48  H   -0.034431
    49  C   -0.086400
    50  H   -0.004588
    51  H   -0.001415
 Sum of ESP charges =  -0.00000

 Normal termination of Gaussian 16 at Thu Apr 11 14:30:07 2024.
