 Gaussian 16, Revision C.02,
 Gaussian 16:  AS64L-G16RevC.02  7-Dec-2021

 ----------------------------------------------------------------------
 # wb97xd/genecp scrf=(solvent=toluene,pcm) nosymm pop=(chelpg) scfcyc=
 300
 ----------------------------------------------------------------------

 --------------------------
 cf3_benzopiperidine_chelpg
 --------------------------
 Symbolic Z-matrix:
 Charge =  0 Multiplicity = 1

                          Input orientation:
 ---------------------------------------------------------------------
 Center     Atomic      Atomic             Coordinates (Angstroms)
 Number     Number       Type             X           Y           Z
 ---------------------------------------------------------------------
      1          6           0       -0.739162    0.813929    0.436295
      2          6           0        0.641251    0.743409    0.250150
      3          6           0        1.312166    1.927548   -0.019007
      4          6           0        0.596244    3.100336   -0.089290
      5          6           0       -0.768374    3.223385    0.084763
      6          6           0       -1.430969    2.026429    0.354724
      7          1           0       -1.296796   -0.091486    0.649038
      8          1           0        1.158312   -0.206978    0.315165
      9          1           0       -1.300832    4.165117    0.020523
     10          1           0       -2.504460    2.035539    0.504760
     11          5           0        2.674230    2.690484   -0.343349
     12          6           0        1.415400    4.804136   -1.669992
     13          6           0        1.759806    5.103450    0.721119
     14          6           0        2.521203    5.799726   -1.983972
     15          6           0        2.874524    6.105765    0.468849
     16          6           0        2.676937    6.824114   -0.863342
     17          1           0        2.273623    6.287002   -2.930364
     18          1           0        3.461848    5.266222   -2.136406
     19          1           0        2.881561    6.814495    1.300740
     20          1           0        3.839056    5.593231    0.478482
     21          1           0        3.521432    7.485808   -1.067866
     22          1           0        1.779700    7.453012   -0.812518
     23          7           0        1.653549    4.084219   -0.375642
     24          1           0        1.891181    4.571665    1.659096
     25          1           0        0.792281    5.616337    0.756205
     26          1           0        0.458456    5.326020   -1.559053
     27          1           0        1.301426    4.058619   -2.451889
     28          6           0        3.350781    2.297397   -1.778202
     29          6           0        3.798804    2.666601    0.840779
     30          9           0        3.896036    1.061645   -1.719175
     31          9           0        2.465442    2.245034   -2.810807
     32          9           0        4.344777    3.121205   -2.199723
     33          9           0        4.855382    3.499372    0.653619
     34          9           0        4.323163    1.426520    0.965259
     35          9           0        3.315073    2.971531    2.075798
 ---------------------------------------------------------------------

 SCF Done:  E(RwB97XD) =  -1182.51781593     A.U. after   15 cycles

 Alpha  occ. eigenvalues --  -24.83141 -24.83106 -24.83041 -24.83040 -24.82837
 Alpha  occ. eigenvalues --  -24.82833 -14.53202 -10.50947 -10.50941 -10.33962
 Alpha  occ. eigenvalues --  -10.33909 -10.33904 -10.31352 -10.30736 -10.30363
 Alpha  occ. eigenvalues --  -10.30268 -10.29570 -10.29555 -10.29297 -10.28494
 Alpha  occ. eigenvalues --   -6.87543  -1.41117  -1.40810  -1.32115  -1.32054
 Alpha  occ. eigenvalues --   -1.31896  -1.31745  -1.10699  -0.97829  -0.92847
 Alpha  occ. eigenvalues --   -0.88603  -0.87321  -0.85905  -0.81556  -0.79239
 Alpha  occ. eigenvalues --   -0.77855  -0.75222  -0.73987  -0.70800  -0.69303
 Alpha  occ. eigenvalues --   -0.68341  -0.67596  -0.67324  -0.67019  -0.66693
 Alpha  occ. eigenvalues --   -0.64695  -0.64396  -0.59666  -0.59354  -0.57885
 Alpha  occ. eigenvalues --   -0.56834  -0.56024  -0.55662  -0.55492  -0.55332
 Alpha  occ. eigenvalues --   -0.54811  -0.54213  -0.52996  -0.52391  -0.52016
 Alpha  occ. eigenvalues --   -0.51467  -0.51223  -0.51022  -0.50474  -0.49618
 Alpha  occ. eigenvalues --   -0.49554  -0.48813  -0.47933  -0.47226  -0.45718
 Alpha  occ. eigenvalues --   -0.45607  -0.43912  -0.42508  -0.41988  -0.41641
 Alpha  occ. eigenvalues --   -0.41547  -0.39451  -0.34936  -0.34077
 Alpha virt. eigenvalues --    0.03116   0.03447   0.04319   0.04422   0.05209
 Alpha virt. eigenvalues --    0.05300   0.06166   0.06687   0.07346   0.07742
 Alpha virt. eigenvalues --    0.08321   0.08550   0.08654   0.09220   0.10416

 Mulliken charges:
               1
     1  C   -0.467851
     2  C   -0.250182
     3  C   -0.222835
     4  C    0.386992
     5  C   -0.228355
     6  C   -0.322846
     7  H    0.234375
     8  H    0.277916
     9  H    0.236035
    10  H    0.247584
    11  B    0.259065
    12  C   -0.295868
    13  C   -0.292842
    14  C   -0.424164
    15  C   -0.425711
    16  C   -0.476811
    17  H    0.229494
    18  H    0.195266
    19  H    0.231748
    20  H    0.194105
    21  H    0.232322
    22  H    0.147521
    23  N   -0.023430
    24  H    0.272569
    25  H    0.229065
    26  H    0.226133
    27  H    0.274674
    28  C   -0.085797
    29  C   -0.087400
    30  F   -0.043127
    31  F   -0.050506
    32  F   -0.043606
    33  F   -0.040026
    34  F   -0.044924
    35  F   -0.048581
 Sum of Mulliken charges =  -0.00000

 Dipole moment (field-independent basis, Debye):
    X=             -5.9774    Y=              5.1933    Z=              0.2753  Tot=              7.9231
 Quadrupole moment (field-independent basis, Debye-Ang):
   XX=           -145.0441   YY=            -74.8448   ZZ=           -127.3439
   XY=             -3.9675   XZ=              0.7607   YZ=             -4.2571

 ESP charges:
               1
     1  C   -0.088721
     2  C   -0.149899
     3  C   -0.044917
     4  C    0.219406
     5  C   -0.251691
     6  C   -0.080312
     7  H    0.106923
     8  H    0.126275
     9  H    0.162862
    10  H    0.109465
    11  B   -0.084321
    12  C   -0.018186
    13  C    0.075500
    14  C    0.121221
    15  C    0.098884
    16  C   -0.186835
    17  H    0.010499
    18  H    0.006880
    19  H    0.011319
    20  H    0.008717
    21  H    0.057023
    22  H    0.043461
    23  N   -0.138242
    24  H    0.014288
    25  H    0.036293
    26  H    0.060635
    27  H    0.046045
    28  C    0.656989
    29  C    0.651419
    30  F   -0.260811
    31  F   -0.274238
    32  F   -0.257201
    33  F   -0.256334
    34  F   -0.263215
    35  F   -0.269182
 Sum of ESP charges =   0.00000

 Normal termination of Gaussian 16 at Thu Apr 11 15:33:03 2024.
