 Gaussian 16, Revision C.02,
 Gaussian 16:  AS64L-G16RevC.02  7-Dec-2021

 ----------------------------------------------------------------------
 # wb97xd/genecp scrf=(solvent=toluene,pcm) nosymm pop=(chelpg) scfcyc=
 300
 ----------------------------------------------------------------------

 -------------------------
 cl_dimethylaniline_chelpg
 -------------------------
 Symbolic Z-matrix:
 Charge =  0 Multiplicity = 1

                          Input orientation:
 ---------------------------------------------------------------------
 Center     Atomic      Atomic             Coordinates (Angstroms)
 Number     Number       Type             X           Y           Z
 ---------------------------------------------------------------------
      1          6           0       -0.651803    0.902026    0.757942
      2          6           0        0.717753    1.063266    0.871673
      3          6           0        1.379717    2.210832    0.397937
      4          6           0        0.595903    3.279395   -0.118843
      5          6           0       -0.790605    3.090420   -0.255385
      6          6           0       -1.395772    1.919045    0.167513
      7          1           0       -1.130477   -0.003548    1.109827
      8          1           0        1.307045    0.259180    1.298620
      9          1           0       -1.408526    3.881663   -0.658426
     10          1           0       -2.470063    1.813124    0.059806
     11          7           0        1.180909    4.482291   -0.473969
     12          5           0        2.910513    2.105572    0.270658
     13          6           0        2.170471    5.110979    0.386072
     14          1           0        2.476173    4.434535    1.184315
     15          1           0        3.060025    5.403738   -0.179074
     16          1           0        1.744412    6.006594    0.857441
     17          6           0        0.434330    5.432342   -1.271751
     18          1           0       -0.056107    4.930694   -2.107027
     19          1           0       -0.321816    5.979130   -0.687695
     20          1           0        1.133845    6.161546   -1.685056
     21         17           0        3.809636    2.693843   -1.136921
     22         17           0        3.879369    1.244154    1.483656
 ---------------------------------------------------------------------

 SCF Done:  E(RwB97XD) =  -1310.94590924     A.U. after   17 cycles

 Alpha  occ. eigenvalues -- -101.72103-101.71937 -14.45745 -10.34560 -10.31622
 Alpha  occ. eigenvalues --  -10.31467 -10.30192 -10.30104 -10.28997 -10.28652
 Alpha  occ. eigenvalues --  -10.28550  -9.59152  -9.58996  -7.33805  -7.33656
 Alpha  occ. eigenvalues --   -7.33286  -7.33125  -7.33111  -7.32947  -6.95195
 Alpha  occ. eigenvalues --   -1.06313  -0.96626  -0.95458  -0.92206  -0.86046
 Alpha  occ. eigenvalues --   -0.85883  -0.82361  -0.76632  -0.71143  -0.68275
 Alpha  occ. eigenvalues --   -0.63524  -0.59387  -0.57924  -0.56625  -0.56618
 Alpha  occ. eigenvalues --   -0.53799  -0.52605  -0.51158  -0.50175  -0.49265
 Alpha  occ. eigenvalues --   -0.48868  -0.47635  -0.46359  -0.45424  -0.44588
 Alpha  occ. eigenvalues --   -0.43647  -0.40939  -0.40427  -0.39406  -0.37277
 Alpha  occ. eigenvalues --   -0.34165  -0.28176
 Alpha virt. eigenvalues --   -0.00220   0.03785   0.04924   0.05229   0.05451
 Alpha virt. eigenvalues --    0.06148   0.06858   0.06924   0.07493   0.08135
 Alpha virt. eigenvalues --    0.08441   0.09201   0.09453   0.09839   0.11224

 Mulliken charges:
               1
     1  C   -0.537812
     2  C    0.080018
     3  C    1.136310
     4  C   -1.062028
     5  C   -0.072231
     6  C   -0.349258
     7  H    0.220913
     8  H    0.212327
     9  H    0.186382
    10  H    0.231926
    11  N    0.267082
    12  B   -0.546093
    13  C   -0.546786
    14  H    0.240848
    15  H    0.201505
    16  H    0.163765
    17  C   -0.479958
    18  H    0.167539
    19  H    0.187644
    20  H    0.185075
    21  Cl   0.042205
    22  Cl   0.070626
 Sum of Mulliken charges =  -0.00000

 Dipole moment (field-independent basis, Debye):
    X=             -2.6824    Y=              2.4658    Z=             -0.2615  Tot=              3.6529
 Quadrupole moment (field-independent basis, Debye-Ang):
   XX=            -93.3348   YY=            -62.8572   ZZ=            -87.9457
   XY=             -1.6168   XZ=              1.2354   YZ=             -3.3230

 ESP charges:
               1
     1  C   -0.189205
     2  C   -0.043904
     3  C   -0.224214
     4  C    0.331187
     5  C   -0.246052
     6  C   -0.036591
     7  H    0.115082
     8  H    0.095520
     9  H    0.129008
    10  H    0.103188
    11  N   -0.286415
    12  B    0.393728
    13  C    0.035459
    14  H    0.014953
    15  H    0.062096
    16  H    0.038773
    17  C   -0.130014
    18  H    0.069885
    19  H    0.076633
    20  H    0.099988
    21  Cl  -0.210142
    22  Cl  -0.198961
 Sum of ESP charges =  -0.00000

 Normal termination of Gaussian 16 at Wed Apr 10 15:36:18 2024.
