 Gaussian 16, Revision C.02,
 Gaussian 16:  AS64L-G16RevC.02  7-Dec-2021

 ----------------------------------------------------------------------
 # wb97xd/genecp scrf=(solvent=toluene,pcm) nosymm pop=(chelpg) scfcyc=
 300
 ----------------------------------------------------------------------

 ----------------------
 cl_dibenzofuran_chelpg
 ----------------------
 Symbolic Z-matrix:
 Charge =  0 Multiplicity = 1

                          Input orientation:
 ---------------------------------------------------------------------
 Center     Atomic      Atomic             Coordinates (Angstroms)
 Number     Number       Type             X           Y           Z
 ---------------------------------------------------------------------
      1          6           0        2.103734    2.167178    0.212201
      2          6           0        1.913910    2.533357   -1.126289
      3          8           0        1.623281    3.123448    1.046123
      4          6           0        1.260803    3.827601   -1.094211
      5          6           0        1.121102    4.128444    0.256356
      6          6           0        0.771341    4.700828   -2.066647
      7          6           0        0.510559    5.294504    0.740661
      8          6           0        0.153479    5.855361   -1.623015
      9          1           0        0.863805    4.478329   -3.122583
     10          6           0        0.031324    6.149011   -0.258740
     11          1           0       -0.243686    6.563380   -2.341497
     12          1           0       -0.450440    7.075640    0.023895
     13          6           0        2.334827    1.680724   -2.138914
     14          1           0        2.195029    1.947484   -3.180407
     15          6           0        2.937742    0.479086   -1.787415
     16          1           0        3.274236   -0.202366   -2.559284
     17          6           0        3.114558    0.137911   -0.449882
     18          6           0        2.706877    0.966967    0.612372
     19          1           0        3.588555   -0.807574   -0.215533
     20          5           0        2.934589    0.537803    2.077490
     21          7           0        0.356043    5.530144    2.108756
     22          6           0        1.556878    5.434547    2.932875
     23          1           0        2.218114    6.302291    2.785057
     24          1           0        1.262167    5.399317    3.983572
     25          1           0        2.109830    4.525938    2.708584
     26          6           0       -0.489080    6.644838    2.488341
     27          1           0       -0.659264    6.597786    3.565303
     28          1           0       -0.040808    7.624786    2.256917
     29          1           0       -1.457590    6.574632    1.989994
     30         17           0        2.512484    1.535293    3.465660
     31         17           0        3.665024   -1.031795    2.453544
 ---------------------------------------------------------------------

 SCF Done:  E(RwB97XD) =  -1615.99752405     A.U. after   17 cycles

 Alpha  occ. eigenvalues -- -101.72459-101.72362 -19.32317 -14.45143 -10.37035
 Alpha  occ. eigenvalues --  -10.35302 -10.33984 -10.31574 -10.31223 -10.31156
 Alpha  occ. eigenvalues --  -10.30921 -10.30680 -10.30415 -10.30331 -10.30072
 Alpha  occ. eigenvalues --  -10.29413 -10.29347 -10.29210  -9.59512  -9.59431
 Alpha  occ. eigenvalues --   -7.34166  -7.34090  -7.33637  -7.33571  -7.33474
 Alpha  occ. eigenvalues --   -7.33368  -6.95794  -1.23355  -1.05558  -0.98478
 Alpha  occ. eigenvalues --   -0.97033  -0.96062  -0.92698  -0.89886  -0.87722
 Alpha  occ. eigenvalues --   -0.85140  -0.84223  -0.81545  -0.76931  -0.74574
 Alpha  occ. eigenvalues --   -0.72852  -0.70479  -0.67724  -0.63677  -0.62681
 Alpha  occ. eigenvalues --   -0.60730  -0.59582  -0.57884  -0.57486  -0.55787
 Alpha  occ. eigenvalues --   -0.55628  -0.55210  -0.54249  -0.52671  -0.51755
 Alpha  occ. eigenvalues --   -0.50547  -0.49807  -0.48810  -0.47992  -0.47652
 Alpha  occ. eigenvalues --   -0.47172  -0.46100  -0.45808  -0.45518  -0.45306
 Alpha  occ. eigenvalues --   -0.44880  -0.43502  -0.41380  -0.40769  -0.39289
 Alpha  occ. eigenvalues --   -0.38978  -0.36490  -0.33239  -0.31015  -0.28074
 Alpha virt. eigenvalues --   -0.02164   0.03008   0.03862   0.04441   0.04911
 Alpha virt. eigenvalues --    0.05875   0.06054   0.06125   0.06671   0.07015
 Alpha virt. eigenvalues --    0.07348   0.07755   0.08007   0.08108   0.09046

 Mulliken charges:
               1
     1  C   -0.761247
     2  C    1.513243
     3  O    0.028786
     4  C    1.470256
     5  C   -1.800780
     6  C   -0.152566
     7  C   -0.418044
     8  C   -0.302871
     9  H    0.174838
    10  C    0.338290
    11  H    0.241497
    12  H    0.193979
    13  C   -0.163800
    14  H    0.193795
    15  C   -0.412616
    16  H    0.253057
    17  C   -0.579588
    18  C   -0.211051
    19  H    0.168620
    20  B    0.008374
    21  N    0.074965
    22  C   -0.451829
    23  H    0.174990
    24  H    0.170453
    25  H    0.114349
    26  C   -0.393984
    27  H    0.182428
    28  H    0.163308
    29  H    0.165316
    30  Cl   0.038566
    31  Cl  -0.020735
 Sum of Mulliken charges =  -0.00000

 Dipole moment (field-independent basis, Debye):
    X=             -0.5837    Y=              2.2678    Z=             -2.2650  Tot=              3.2579
 Quadrupole moment (field-independent basis, Debye-Ang):
   XX=           -127.5062   YY=           -102.6278   ZZ=           -118.2073
   XY=             -3.8455   XZ=             -7.9800   YZ=              5.7408

 ESP charges:
               1
     1  C    0.265188
     2  C    0.011129
     3  O   -0.261184
     4  C    0.064060
     5  C    0.015714
     6  C   -0.242283
     7  C    0.350216
     8  C   -0.125022
     9  H    0.148177
    10  C   -0.249081
    11  H    0.120823
    12  H    0.145551
    13  C   -0.138592
    14  H    0.139982
    15  C   -0.117555
    16  H    0.112663
    17  C   -0.115367
    18  C   -0.179683
    19  H    0.119434
    20  B    0.442235
    21  N   -0.420970
    22  C    0.094360
    23  H   -0.013705
    24  H    0.072574
    25  H    0.042553
    26  C   -0.018835
    27  H    0.068519
    28  H    0.044508
    29  H    0.045851
    30  Cl  -0.206010
    31  Cl  -0.215250
 Sum of ESP charges =  -0.00000

 Normal termination of Gaussian 16 at Thu Apr 11 16:29:51 2024.
