 Gaussian 16, Revision C.02,
 Gaussian 16:  AS64L-G16RevC.02  7-Dec-2021

 ----------------------------------------------------------------------
 # wb97xd/genecp scrf=(solvent=toluene,pcm) nosymm pop=(chelpg) scfcyc=
 300
 ----------------------------------------------------------------------

 ---------------------
 cl_naphthalene_chelpg
 ---------------------
 Symbolic Z-matrix:
 Charge =  0 Multiplicity = 1

                          Input orientation:
 ---------------------------------------------------------------------
 Center     Atomic      Atomic             Coordinates (Angstroms)
 Number     Number       Type             X           Y           Z
 ---------------------------------------------------------------------
      1          6           0       -5.369696   -0.807926    0.454077
      2          6           0       -4.037137   -0.787886    0.169686
      3          6           0       -3.340446    0.416598   -0.009331
      4          6           0       -4.001336    1.654656    0.042624
      5          6           0       -5.390788    1.632829    0.335347
      6          6           0       -6.039260    0.441417    0.548800
      7          1           0       -5.922715   -1.729231    0.593264
      8          6           0       -1.955622    0.261718   -0.226058
      9          6           0       -3.203943    2.801725   -0.199338
     10          1           0       -5.939705    2.566644    0.395110
     11          1           0       -7.097882    0.442956    0.780960
     12          6           0       -1.860201    2.661564   -0.457470
     13          6           0       -1.220628    1.395089   -0.460415
     14          1           0       -3.658682    3.786423   -0.178476
     15          1           0       -1.263945    3.548040   -0.645271
     16          1           0       -0.149939    1.339768   -0.626772
     17          5           0       -1.603421   -1.266102    0.043841
     18          7           0       -3.159664   -1.940399   -0.104487
     19          6           0       -3.425251   -3.100900    0.783610
     20          1           0       -4.394168   -3.535532    0.533832
     21          1           0       -2.641780   -3.841142    0.624386
     22          1           0       -3.414471   -2.775590    1.819660
     23          6           0       -3.418194   -2.362809   -1.518782
     24          1           0       -2.806579   -3.232569   -1.746854
     25          1           0       -4.476538   -2.603795   -1.621197
     26          1           0       -3.157369   -1.545993   -2.189210
     27         17           0       -1.041105   -1.496342    1.810882
     28         17           0       -0.417305   -2.103637   -1.099984
 ---------------------------------------------------------------------

 SCF Done:  E(RwB97XD) =  -1464.60167965     A.U. after   16 cycles

 Alpha  occ. eigenvalues -- -101.68697-101.68124 -14.54146 -10.34790 -10.33672
 Alpha  occ. eigenvalues --  -10.33534 -10.31439 -10.31118 -10.30822 -10.30556
 Alpha  occ. eigenvalues --  -10.30331 -10.29847 -10.29774 -10.29462 -10.28016
 Alpha  occ. eigenvalues --   -9.55745  -9.55171  -7.30404  -7.29829  -7.29812
 Alpha  occ. eigenvalues --   -7.29772  -7.29233  -7.29202  -6.92580  -1.10973
 Alpha  occ. eigenvalues --   -0.99499  -0.94177  -0.91672  -0.89750  -0.88531
 Alpha  occ. eigenvalues --   -0.86082  -0.84263  -0.83289  -0.78964  -0.73751
 Alpha  occ. eigenvalues --   -0.72362  -0.69259  -0.65505  -0.62052  -0.61844
 Alpha  occ. eigenvalues --   -0.59707  -0.58374  -0.58094  -0.55354  -0.54258
 Alpha  occ. eigenvalues --   -0.52426  -0.51832  -0.50679  -0.50506  -0.49803
 Alpha  occ. eigenvalues --   -0.49075  -0.48840  -0.46606  -0.46130  -0.45685
 Alpha  occ. eigenvalues --   -0.43259  -0.43067  -0.42585  -0.39387  -0.38625
 Alpha  occ. eigenvalues --   -0.37644  -0.36316  -0.35997  -0.33373  -0.30070
 Alpha virt. eigenvalues --    0.00214   0.03187   0.03542   0.04535   0.04979
 Alpha virt. eigenvalues --    0.05705   0.06271   0.06606   0.06735   0.07492
 Alpha virt. eigenvalues --    0.08260   0.08620   0.08743   0.09286   0.10021

 Mulliken charges:
               1
     1  C   -0.395799
     2  C    0.125261
     3  C   -0.220974
     4  C    0.310233
     5  C   -0.213627
     6  C   -0.469934
     7  H    0.219698
     8  C    0.898838
     9  C   -0.188112
    10  H    0.210337
    11  H    0.241146
    12  C   -0.441804
    13  C   -0.284800
    14  H    0.215135
    15  H    0.231329
    16  H    0.273511
    17  B   -0.873750
    18  N   -0.103601
    19  C   -0.256117
    20  H    0.164728
    21  H    0.273345
    22  H    0.204301
    23  C   -0.490581
    24  H    0.242996
    25  H    0.194463
    26  H    0.253903
    27  Cl  -0.112043
    28  Cl  -0.008082
 Sum of Mulliken charges =  -0.00000

 Dipole moment (field-independent basis, Debye):
    X=             -6.7835    Y=             -0.5200    Z=             -1.4880  Tot=              6.9642
 Quadrupole moment (field-independent basis, Debye-Ang):
   XX=            -69.8907   YY=            -92.0860   ZZ=           -114.2351
   XY=             14.7467   XZ=              0.8853   YZ=              1.0297

 ESP charges:
               1
     1  C   -0.225018
     2  C    0.171840
     3  C   -0.025810
     4  C    0.267076
     5  C   -0.309688
     6  C   -0.034571
     7  H    0.162205
     8  C   -0.011796
     9  C   -0.315749
    10  H    0.160368
    11  H    0.104218
    12  C   -0.028174
    13  C   -0.162672
    14  H    0.154038
    15  H    0.102483
    16  H    0.113469
    17  B    0.305433
    18  N   -0.140371
    19  C   -0.200636
    20  H    0.114187
    21  H    0.137537
    22  H    0.117379
    23  C   -0.066554
    24  H    0.116062
    25  H    0.082964
    26  H    0.042433
    27  Cl  -0.326981
    28  Cl  -0.303672
 Sum of ESP charges =   0.00000

 Normal termination of Gaussian 16 at Thu Apr 11 15:47:14 2024.
