 Gaussian 16, Revision C.02,
 Gaussian 16:  AS64L-G16RevC.02  7-Dec-2021

 ----------------------------------------------------------------------
 # wb97xd/genecp scrf=(solvent=toluene,pcm) nosymm pop=(chelpg) scfcyc=
 300
 ----------------------------------------------------------------------

 -------------------
 cl_quinoline_chelpg
 -------------------
 Symbolic Z-matrix:
 Charge =  0 Multiplicity = 1

                          Input orientation:
 ---------------------------------------------------------------------
 Center     Atomic      Atomic             Coordinates (Angstroms)
 Number     Number       Type             X           Y           Z
 ---------------------------------------------------------------------
      1          6           0       -4.005726    0.039899    0.271132
      2          6           0       -2.646290    0.063834    0.047350
      3          6           0       -1.993476    1.324973   -0.085655
      4          6           0       -2.740858    2.521327    0.050290
      5          6           0       -4.130713    2.446709    0.315087
      6          6           0       -4.749652    1.231371    0.418320
      7          1           0       -4.524245   -0.910159    0.350452
      8          6           0       -2.052315    3.748051   -0.105345
      9          1           0       -4.695653    3.366968    0.421760
     10          1           0       -5.814662    1.174466    0.610120
     11          6           0       -0.715419    3.732849   -0.386559
     12          6           0       -0.065454    2.484378   -0.519485
     13          1           0       -2.595351    4.682248   -0.005368
     14          1           0       -0.152293    4.648921   -0.514813
     15          1           0        0.995437    2.454022   -0.754175
     16          7           0       -0.664444    1.327989   -0.381319
     17          5           0       -1.834737   -1.263186   -0.011695
     18         17           0       -2.282799   -2.524560   -1.162023
     19         17           0       -0.551785   -1.633389    1.131614
 ---------------------------------------------------------------------

 SCF Done:  E(RwB97XD) =  -1346.64219304     A.U. after   17 cycles

 Alpha  occ. eigenvalues -- -101.72589-101.72235 -14.44229 -10.34177 -10.33629
 Alpha  occ. eigenvalues --  -10.31925 -10.31730 -10.31260 -10.31052 -10.30684
 Alpha  occ. eigenvalues --  -10.30547 -10.29799  -9.59632  -9.59287  -7.34283
 Alpha  occ. eigenvalues --   -7.33948  -7.33779  -7.33579  -7.33419  -7.33235
 Alpha  occ. eigenvalues --   -6.96074  -1.06668  -0.97390  -0.96244  -0.92670
 Alpha  occ. eigenvalues --   -0.92467  -0.86906  -0.85881  -0.75513  -0.74254
 Alpha  occ. eigenvalues --   -0.71834  -0.63668  -0.62972  -0.61487  -0.58746
 Alpha  occ. eigenvalues --   -0.55967  -0.53520  -0.52993  -0.52746  -0.51163
 Alpha  occ. eigenvalues --   -0.50558  -0.50126  -0.46422  -0.46038  -0.44604
 Alpha  occ. eigenvalues --   -0.44567  -0.41400  -0.40908  -0.40612  -0.39281
 Alpha  occ. eigenvalues --   -0.35329  -0.34115  -0.32271
 Alpha virt. eigenvalues --   -0.01548   0.01882   0.03000   0.03779   0.04618
 Alpha virt. eigenvalues --    0.05257   0.06528   0.06625   0.06809   0.07527
 Alpha virt. eigenvalues --    0.08424   0.08818   0.09293   0.10801   0.11670

 Mulliken charges:
               1
     1  C   -0.381269
     2  C    0.816293
     3  C   -1.460193
     4  C    0.474419
     5  C   -0.224226
     6  C   -0.475039
     7  H    0.255445
     8  C    0.719325
     9  H    0.205257
    10  H    0.242052
    11  C   -0.813754
    12  C    0.085607
    13  H    0.253411
    14  H    0.234674
    15  H    0.254941
    16  N    0.107290
    17  B   -0.429951
    18  Cl   0.067571
    19  Cl   0.068147
 Sum of Mulliken charges =  -0.00000

 Dipole moment (field-independent basis, Debye):
    X=             -2.1097    Y=              4.3249    Z=              0.2906  Tot=              4.8207
 Quadrupole moment (field-independent basis, Debye-Ang):
   XX=            -70.8254   YY=            -73.8152   ZZ=            -92.2336
   XY=             -6.2456   XZ=             -3.9046   YZ=             -1.2856

 ESP charges:
               1
     1  C   -0.104642
     2  C   -0.260408
     3  C    0.469691
     4  C    0.021657
     5  C   -0.223767
     6  C   -0.057066
     7  H    0.122023
     8  C   -0.057857
     9  H    0.145060
    10  H    0.107512
    11  C   -0.264252
    12  C    0.332842
    13  H    0.127447
    14  H    0.134452
    15  H    0.045639
    16  N   -0.608695
    17  B    0.478251
    18  Cl  -0.204125
    19  Cl  -0.203763
 Sum of ESP charges =  -0.00000

 Normal termination of Gaussian 16 at Thu Apr 11 15:22:26 2024.
