 Gaussian 16, Revision C.02,
 Gaussian 16:  AS64L-G16RevC.02  7-Dec-2021

 ----------------------------------------------------------------------
 # wb97xd/genecp scrf=(solvent=toluene,pcm) nosymm pop=(chelpg) scfcyc=
 300
 ----------------------------------------------------------------------

 ------------------
 cl_xanthene_chelpg
 ------------------
 Symbolic Z-matrix:
 Charge =  0 Multiplicity = 1

                          Input orientation:
 ---------------------------------------------------------------------
 Center     Atomic      Atomic             Coordinates (Angstroms)
 Number     Number       Type             X           Y           Z
 ---------------------------------------------------------------------
      1          6           0       -2.091734    1.418885    1.017758
      2          6           0       -0.717776    1.244830    1.237821
      3          6           0        0.189998    2.244557    0.931953
      4          6           0       -0.259603    3.443187    0.390631
      5          6           0       -1.611322    3.662870    0.147091
      6          6           0       -2.502759    2.634263    0.453165
      7          1           0       -0.361541    0.310507    1.656819
      8          1           0        1.247628    2.093878    1.111963
      9          1           0        0.462008    4.215828    0.155841
     10          6           0       -2.191842    4.972528   -0.373899
     11          8           0       -3.830647    2.781229    0.168917
     12          6           0       -1.137146    5.839846   -1.062676
     13          1           0       -1.578465    6.777787   -1.405057
     14          1           0       -0.343511    6.108671   -0.362463
     15          1           0       -0.689960    5.331172   -1.920460
     16          6           0       -2.771654    5.758706    0.826175
     17          1           0       -1.974557    6.006905    1.532699
     18          1           0       -3.233127    6.686309    0.476623
     19          1           0       -3.529897    5.177404    1.355407
     20          6           0       -3.340251    4.605508   -1.308341
     21          6           0       -4.148921    3.538956   -0.937081
     22          6           0       -3.646262    5.289876   -2.484519
     23          6           0       -5.292426    3.160645   -1.661776
     24          6           0       -4.746615    4.918345   -3.239856
     25          1           0       -3.026195    6.113088   -2.814575
     26          6           0       -5.569424    3.876877   -2.827230
     27          1           0       -4.979009    5.452348   -4.154214
     28          1           0       -6.434164    3.616299   -3.423782
     29          5           0       -3.067090    0.293563    1.443432
     30          7           0       -6.072428    2.075885   -1.217352
     31          6           0       -6.756898    2.300289    0.051757
     32          1           0       -7.599653    3.001251   -0.063621
     33          1           0       -7.144558    1.349283    0.423860
     34          1           0       -6.065869    2.695621    0.793045
     35          6           0       -6.949526    1.468646   -2.199454
     36          1           0       -7.327234    0.528741   -1.791127
     37          1           0       -7.819071    2.096911   -2.456091
     38          1           0       -6.395987    1.245294   -3.113156
     39         17           0       -4.581710    0.593844    2.286927
     40         17           0       -2.623708   -1.401627    1.203248
 ---------------------------------------------------------------------

 SCF Done:  E(RwB97XD) =  -1733.92778719     A.U. after   16 cycles

 Alpha  occ. eigenvalues -- -101.72399-101.72228 -19.30151 -14.44127 -10.36717
 Alpha  occ. eigenvalues --  -10.35055 -10.32875 -10.32273 -10.30756 -10.30520
 Alpha  occ. eigenvalues --  -10.30436 -10.30381 -10.30214 -10.29921 -10.29492
 Alpha  occ. eigenvalues --  -10.29451 -10.28870 -10.28757 -10.28741 -10.28082
 Alpha  occ. eigenvalues --  -10.27872  -9.59449  -9.59306  -7.34102  -7.33963
 Alpha  occ. eigenvalues --   -7.33589  -7.33439  -7.33401  -7.33251  -6.95812
 Alpha  occ. eigenvalues --   -1.20699  -1.04717  -0.98287  -0.97154  -0.96116
 Alpha  occ. eigenvalues --   -0.92690  -0.92465  -0.87648  -0.85871  -0.84385
 Alpha  occ. eigenvalues --   -0.83203  -0.81015  -0.79594  -0.75922  -0.74504
 Alpha  occ. eigenvalues --   -0.73550  -0.70207  -0.67592  -0.65485  -0.65053
 Alpha  occ. eigenvalues --   -0.61563  -0.59598  -0.58191  -0.57443  -0.57183
 Alpha  occ. eigenvalues --   -0.56628  -0.55546  -0.54798  -0.54006  -0.53665
 Alpha  occ. eigenvalues --   -0.52662  -0.51727  -0.50886  -0.49777  -0.48854
 Alpha  occ. eigenvalues --   -0.48303  -0.47941  -0.47726  -0.47466  -0.47051
 Alpha  occ. eigenvalues --   -0.46240  -0.45867  -0.45138  -0.45000  -0.44857
 Alpha  occ. eigenvalues --   -0.44431  -0.43157  -0.41933  -0.41436  -0.40982
 Alpha  occ. eigenvalues --   -0.39885  -0.39103  -0.35695  -0.34339  -0.33304
 Alpha  occ. eigenvalues --   -0.30957  -0.28075
 Alpha virt. eigenvalues --   -0.00527   0.03788   0.04414   0.04638   0.04826
 Alpha virt. eigenvalues --    0.05303   0.05501   0.05957   0.06263   0.06498
 Alpha virt. eigenvalues --    0.06710   0.06910   0.07188   0.07555   0.07837

 Mulliken charges:
               1
     1  C    0.873989
     2  C   -0.573911
     3  C   -0.777585
     4  C   -0.211356
     5  C    0.215114
     6  C    0.183954
     7  H    0.190348
     8  H    0.249737
     9  H    0.182528
    10  C   -0.230697
    11  O   -0.068540
    12  C   -0.409639
    13  H    0.173482
    14  H    0.169903
    15  H    0.196938
    16  C   -0.788843
    17  H    0.183727
    18  H    0.189788
    19  H    0.195332
    20  C    0.350099
    21  C   -0.023820
    22  C   -0.090290
    23  C   -0.028342
    24  C   -0.606335
    25  H    0.162702
    26  C   -0.380815
    27  H    0.249000
    28  H    0.173524
    29  B   -0.403478
    30  N    0.234472
    31  C   -0.416715
    32  H    0.166732
    33  H    0.172912
    34  H    0.132937
    35  C   -0.319501
    36  H    0.180499
    37  H    0.144439
    38  H    0.170789
    39  Cl   0.136431
    40  Cl   0.050491
 Sum of Mulliken charges =  -0.00000

 Dipole moment (field-independent basis, Debye):
    X=              0.8704    Y=              2.7911    Z=             -1.2390  Tot=              3.1753
 Quadrupole moment (field-independent basis, Debye-Ang):
   XX=           -134.1877   YY=           -128.8640   ZZ=           -142.8833
   XY=             -2.0940   XZ=             10.5700   YZ=             -3.6146

 ESP charges:
               1
     1  C   -0.190637
     2  C   -0.102309
     3  C   -0.139081
     4  C   -0.116560
     5  C   -0.083901
     6  C    0.258558
     7  H    0.114371
     8  H    0.115281
     9  H    0.125673
    10  C    0.342867
    11  O   -0.259785
    12  C   -0.276233
    13  H    0.082219
    14  H    0.085512
    15  H    0.036820
    16  C   -0.197371
    17  H    0.036062
    18  H    0.044264
    19  H    0.046406
    20  C   -0.048019
    21  C    0.037101
    22  C   -0.189041
    23  C    0.318294
    24  C   -0.155161
    25  H    0.135141
    26  C   -0.201831
    27  H    0.120758
    28  H    0.135729
    29  B    0.455274
    30  N   -0.413489
    31  C   -0.045962
    32  H    0.014412
    33  H    0.108466
    34  H    0.095238
    35  C   -0.034441
    36  H    0.071506
    37  H    0.051613
    38  H    0.045629
    39  Cl  -0.217431
    40  Cl  -0.205945
 Sum of ESP charges =  -0.00000

 Normal termination of Gaussian 16 at Thu Apr 11 15:26:14 2024.
