 Gaussian 16, Revision C.02,
 Gaussian 16:  AS64L-G16RevC.02  7-Dec-2021

 ----------------------------------------------------------------------
 # wb97xd/genecp scrf=(solvent=toluene,pcm) nosymm pop=(chelpg) scfcyc=
 300
 ----------------------------------------------------------------------

 ----------------------------
 cyclo_dimethylaniline_chelpg
 ----------------------------
 Symbolic Z-matrix:
 Charge =  0 Multiplicity = 1

                          Input orientation:
 ---------------------------------------------------------------------
 Center     Atomic      Atomic             Coordinates (Angstroms)
 Number     Number       Type             X           Y           Z
 ---------------------------------------------------------------------
      1          6           0       -0.857532    0.983394    0.734525
      2          6           0        0.531216    0.968058    0.803632
      3          6           0        1.319040    2.033047    0.352091
      4          6           0        0.660042    3.201590   -0.107095
      5          6           0       -0.740548    3.216915   -0.171567
      6          6           0       -1.484354    2.113641    0.229860
      7          1           0       -1.436767    0.129873    1.067188
      8          1           0        1.025737    0.080048    1.187405
      9          1           0       -1.264648    4.098622   -0.516951
     10          1           0       -2.566798    2.155577    0.167609
     11          7           0        1.409191    4.316872   -0.494397
     12          6           0        2.502538    4.771895    0.347881
     13          1           0        2.822190    3.988822    1.035852
     14          1           0        3.364602    5.064766   -0.259030
     15          1           0        2.196304    5.635071    0.957822
     16          6           0        0.743813    5.407212   -1.173105
     17          1           0        0.134597    5.031884   -1.997101
     18          1           0        0.105405    6.006759   -0.503777
     19          1           0        1.502996    6.070153   -1.594161
     20          5           0        2.860214    1.775499    0.243213
     21          6           0        3.637286    0.995227    1.378251
     22          6           0        3.674095    2.101823   -1.068392
     23          6           0        5.122012    1.383387    1.485316
     24          6           0        5.162904    2.404920   -0.835532
     25          6           0        5.814073    1.405023    0.121351
     26          1           0        5.647437    0.701057    2.161441
     27          1           0        5.203483    2.381795    1.935128
     28          1           0        5.704630    2.419302   -1.787088
     29          1           0        5.264398    3.412213   -0.410580
     30          1           0        6.874257    1.647938    0.247619
     31          1           0        5.772742    0.400502   -0.321018
     32          1           0        3.141633    1.058608    2.352472
     33          1           0        3.579798   -0.067862    1.087392
     34          1           0        3.199838    2.861852   -1.693515
     35          1           0        3.598856    1.159090   -1.639845
 ---------------------------------------------------------------------

 SCF Done:  E(RwB97XD) =  -587.006549799     A.U. after   16 cycles

 Alpha  occ. eigenvalues --  -14.44449 -10.32668 -10.31175 -10.30761 -10.28660
 Alpha  occ. eigenvalues --  -10.28546 -10.27843 -10.27501 -10.27285 -10.27147
 Alpha  occ. eigenvalues --  -10.26943 -10.26284 -10.25102 -10.24701  -6.83499
 Alpha  occ. eigenvalues --   -1.04982  -0.94620  -0.90597  -0.84789  -0.84535
 Alpha  occ. eigenvalues --   -0.83004  -0.81492  -0.78101  -0.75194  -0.69801
 Alpha  occ. eigenvalues --   -0.69021  -0.66984  -0.65268  -0.61833  -0.56809
 Alpha  occ. eigenvalues --   -0.56620  -0.56023  -0.55858  -0.54056  -0.52612
 Alpha  occ. eigenvalues --   -0.51238  -0.50928  -0.49978  -0.48633  -0.48308
 Alpha  occ. eigenvalues --   -0.47188  -0.46397  -0.45782  -0.45260  -0.44913
 Alpha  occ. eigenvalues --   -0.43629  -0.42973  -0.41285  -0.41018  -0.39985
 Alpha  occ. eigenvalues --   -0.36935  -0.35885  -0.35419  -0.32288  -0.27041
 Alpha virt. eigenvalues --    0.02569   0.03826   0.04780   0.04837   0.05500
 Alpha virt. eigenvalues --    0.06029   0.06190   0.06526   0.06989   0.07235
 Alpha virt. eigenvalues --    0.07946   0.08146   0.08338   0.09178   0.09299

 Mulliken charges:
               1
     1  C   -0.614187
     2  C    0.047911
     3  C    0.167313
     4  C    0.056762
     5  C   -0.248068
     6  C   -0.399170
     7  H    0.215049
     8  H    0.213237
     9  H    0.182927
    10  H    0.222334
    11  N    0.245203
    12  C   -0.579338
    13  H    0.194994
    14  H    0.216789
    15  H    0.185624
    16  C   -0.420602
    17  H    0.170218
    18  H    0.176260
    19  H    0.172247
    20  B   -0.231076
    21  C   -0.262946
    22  C   -0.349973
    23  C   -0.486436
    24  C   -0.243952
    25  C   -0.429634
    26  H    0.197102
    27  H    0.151724
    28  H    0.182697
    29  H    0.124151
    30  H    0.193402
    31  H    0.140189
    32  H    0.209272
    33  H    0.193052
    34  H    0.192557
    35  H    0.214368
 Sum of Mulliken charges =  -0.00000

 Dipole moment (field-independent basis, Debye):
    X=              0.3667    Y=              1.6174    Z=             -0.2062  Tot=              1.6712
 Quadrupole moment (field-independent basis, Debye-Ang):
   XX=            -89.8381   YY=            -76.9005   ZZ=            -96.0656
   XY=              2.9721   XZ=              1.0867   YZ=             -2.9515

 ESP charges:
               1
     1  C   -0.221010
     2  C    0.013482
     3  C   -0.325428
     4  C    0.318437
     5  C   -0.254173
     6  C   -0.048376
     7  H    0.111977
     8  H    0.062045
     9  H    0.120804
    10  H    0.097449
    11  N   -0.233803
    12  C    0.005954
    13  H    0.021293
    14  H    0.072242
    15  H    0.025742
    16  C   -0.087165
    17  H    0.056864
    18  H    0.051671
    19  H    0.073438
    20  B    0.349642
    21  C   -0.026758
    22  C   -0.124332
    23  C    0.031282
    24  C    0.205977
    25  C   -0.109002
    26  H   -0.012251
    27  H   -0.005839
    28  H   -0.047126
    29  H   -0.067079
    30  H    0.010722
    31  H    0.011932
    32  H   -0.048014
    33  H    0.014254
    34  H   -0.041804
    35  H   -0.003047
 Sum of ESP charges =  -0.00000

 Normal termination of Gaussian 16 at Tue Apr  9 18:25:32 2024.
