 Gaussian 16, Revision C.02,
 Gaussian 16:  AS64L-G16RevC.02  7-Dec-2021

 ----------------------------------------------------------------------
 # wb97xd/genecp scrf=(solvent=toluene,pcm) nosymm pop=(chelpg) scfcyc=
 300
 ----------------------------------------------------------------------

 -----------------------------
 cyclo5_dimethylaniline_chelpg
 -----------------------------
 Symbolic Z-matrix:
 Charge =  0 Multiplicity = 1

                          Input orientation:
 ---------------------------------------------------------------------
 Center     Atomic      Atomic             Coordinates (Angstroms)
 Number     Number       Type             X           Y           Z
 ---------------------------------------------------------------------
      1          6           0       -0.821912    1.080624    0.969861
      2          6           0        0.566283    1.049937    0.989911
      3          6           0        1.354731    2.069917    0.435594
      4          6           0        0.685325    3.206166   -0.089263
      5          6           0       -0.714169    3.225733   -0.127576
      6          6           0       -1.455775    2.169693    0.387297
      7          1           0       -1.398543    0.263992    1.388569
      8          1           0        1.062580    0.183505    1.415413
      9          1           0       -1.237549    4.078998   -0.539901
     10          1           0       -2.539271    2.214623    0.349819
     11          7           0        1.436572    4.292974   -0.569592
     12          6           0        2.284642    4.976781    0.396748
     13          1           0        2.677397    4.277242    1.131912
     14          1           0        3.127791    5.451958   -0.112795
     15          1           0        1.722623    5.755996    0.936549
     16          6           0        0.778346    5.231425   -1.455591
     17          1           0        0.247370    4.698900   -2.246151
     18          1           0        0.068631    5.896480   -0.935682
     19          1           0        1.540005    5.860244   -1.922896
     20          6           0        3.661643    0.615473    1.004305
     21          6           0        3.870767    2.358334   -0.827021
     22          6           0        5.123663    0.790095    0.550375
     23          1           0        3.278202   -0.344522    0.622363
     24          1           0        3.527024    0.580030    2.089726
     25          6           0        5.023658    1.337245   -0.880753
     26          1           0        4.254135    3.303269   -0.413158
     27          1           0        3.432015    2.618112   -1.793715
     28          1           0        5.618566    1.533878    1.186897
     29          1           0        5.713474   -0.128805    0.612667
     30          1           0        5.966684    1.761482   -1.237565
     31          1           0        4.760305    0.519498   -1.562793
     32          5           0        2.869134    1.756724    0.238169
 ---------------------------------------------------------------------

 SCF Done:  E(RwB97XD) =  -547.687851359     A.U. after   16 cycles

 Alpha  occ. eigenvalues --  -14.44167 -10.32823 -10.30737 -10.30576 -10.29279
 Alpha  occ. eigenvalues --  -10.28948 -10.28286 -10.28019 -10.26778 -10.26656
 Alpha  occ. eigenvalues --  -10.26655 -10.24854 -10.24508  -6.83158  -1.04801
 Alpha  occ. eigenvalues --   -0.94981  -0.90112  -0.84874  -0.84648  -0.81323
 Alpha  occ. eigenvalues --   -0.79038  -0.75404  -0.73378  -0.69594  -0.67136
 Alpha  occ. eigenvalues --   -0.64854  -0.61650  -0.56891  -0.56333  -0.55897
 Alpha  occ. eigenvalues --   -0.55377  -0.54363  -0.53148  -0.51577  -0.50724
 Alpha  occ. eigenvalues --   -0.48750  -0.48385  -0.47211  -0.46448  -0.45554
 Alpha  occ. eigenvalues --   -0.44917  -0.43986  -0.43089  -0.41190  -0.40446
 Alpha  occ. eigenvalues --   -0.39355  -0.38101  -0.36698  -0.35431  -0.33074
 Alpha  occ. eigenvalues --   -0.28005
 Alpha virt. eigenvalues --    0.01551   0.03826   0.04813   0.04876   0.05692
 Alpha virt. eigenvalues --    0.06142   0.06286   0.06326   0.07001   0.07216
 Alpha virt. eigenvalues --    0.08225   0.08407   0.08557   0.09307   0.09769

 Mulliken charges:
               1
     1  C   -0.668304
     2  C   -0.080299
     3  C    0.191837
     4  C   -0.142730
     5  C   -0.132047
     6  C   -0.413148
     7  H    0.215498
     8  H    0.212337
     9  H    0.184440
    10  H    0.229814
    11  N    0.241664
    12  C   -0.471388
    13  H    0.151444
    14  H    0.210325
    15  H    0.148632
    16  C   -0.347089
    17  H    0.174373
    18  H    0.155840
    19  H    0.174366
    20  C   -0.335890
    21  C   -0.138124
    22  C   -0.475252
    23  H    0.182445
    24  H    0.200358
    25  C   -0.633403
    26  H    0.139922
    27  H    0.206115
    28  H    0.157629
    29  H    0.173841
    30  H    0.179930
    31  H    0.160015
    32  B    0.146848
 Sum of Mulliken charges =  -0.00000

 Dipole moment (field-independent basis, Debye):
    X=             -0.6523    Y=              1.6200    Z=             -0.1372  Tot=              1.7518
 Quadrupole moment (field-independent basis, Debye-Ang):
   XX=            -86.6502   YY=            -71.7774   ZZ=            -88.1542
   XY=              2.0278   XZ=              1.4356   YZ=             -3.1459

 ESP charges:
               1
     1  C   -0.179053
     2  C    0.015404
     3  C   -0.387967
     4  C    0.416451
     5  C   -0.251417
     6  C   -0.071200
     7  H    0.105923
     8  H    0.058264
     9  H    0.125477
    10  H    0.106991
    11  N   -0.318284
    12  C    0.010953
    13  H    0.020786
    14  H    0.060155
    15  H    0.021301
    16  C   -0.106503
    17  H    0.058401
    18  H    0.058037
    19  H    0.089962
    20  C   -0.056121
    21  C   -0.201870
    22  C   -0.061267
    23  H    0.018401
    24  H   -0.019657
    25  C    0.048752
    26  H    0.060704
    27  H   -0.003948
    28  H    0.010157
    29  H   -0.000785
    30  H   -0.016879
    31  H   -0.006121
    32  B    0.394953
 Sum of ESP charges =   0.00000

 Normal termination of Gaussian 16 at Wed Apr 10 14:26:08 2024.
