 Gaussian 16, Revision C.02,
 Gaussian 16:  AS64L-G16RevC.02  7-Dec-2021

 ----------------------------------------------------------------------
 # wb97xd/genecp scrf=(solvent=toluene,pcm) nosymm pop=(chelpg) scfcyc=
 300
 ----------------------------------------------------------------------

 ---------------------
 cyclo_xanthene_chelpg
 ---------------------
 Symbolic Z-matrix:
 Charge =  0 Multiplicity = 1

                          Input orientation:
 ---------------------------------------------------------------------
 Center     Atomic      Atomic             Coordinates (Angstroms)
 Number     Number       Type             X           Y           Z
 ---------------------------------------------------------------------
      1          6           0       -1.581986    1.876976    1.198216
      2          6           0       -0.322353    2.054840    1.773831
      3          6           0        0.382351    3.241531    1.601105
      4          6           0       -0.177812    4.289051    0.879838
      5          6           0       -1.452604    4.173513    0.327744
      6          6           0       -2.108994    2.959585    0.498286
      7          1           0        0.125531    1.247277    2.345611
      8          1           0        1.369205    3.355471    2.035499
      9          1           0        0.382308    5.208907    0.764513
     10          6           0       -2.202844    5.300852   -0.375427
     11          8           0       -3.376498    2.783783   -0.011644
     12          6           0       -1.250045    6.351850   -0.949060
     13          1           0       -1.808869    7.164690   -1.417125
     14          1           0       -0.653328    6.803603   -0.154140
     15          1           0       -0.573228    5.920467   -1.690833
     16          6           0       -3.129456    5.981455    0.660013
     17          1           0       -2.533990    6.421518    1.464987
     18          1           0       -3.712645    6.772514    0.180038
     19          1           0       -3.823821    5.262603    1.101134
     20          6           0       -3.082386    4.670544   -1.454885
     21          6           0       -3.676799    3.446156   -1.173608
     22          6           0       -3.363098    5.269167   -2.683887
     23          6           0       -4.580054    2.814148   -2.046728
     24          6           0       -4.230886    4.660351   -3.576162
     25          1           0       -2.905288    6.213486   -2.948554
     26          6           0       -4.844940    3.453691   -3.258116
     27          1           0       -4.444097    5.132361   -4.528572
     28          1           0       -5.529182    3.003893   -3.966179
     29          5           0       -2.361502    0.508756    1.279205
     30          7           0       -5.119447    1.559606   -1.700689
     31          6           0       -5.953412    1.526538   -0.505398
     32          1           0       -6.943290    1.974790   -0.686079
     33          1           0       -6.096741    0.486072   -0.201438
     34          1           0       -5.469914    2.054146    0.313804
     35          6           0       -5.686171    0.775348   -2.779191
     36          1           0       -5.853657   -0.241367   -2.415827
     37          1           0       -6.650931    1.165786   -3.143635
     38          1           0       -4.988530    0.726269   -3.617051
     39          6           0       -2.966409    0.039910    2.649896
     40          1           0       -2.322367    0.304416    3.496916
     41          6           0       -2.622403   -0.332207   -0.018062
     42          1           0       -1.763179   -0.300293   -0.698074
     43          6           0       -3.423390   -1.424150    2.704183
     44          1           0       -2.554800   -2.068261    2.890355
     45          1           0       -4.108562   -1.583580    3.543218
     46          6           0       -4.081350   -1.866325    1.394690
     47          1           0       -4.449102   -2.892951    1.491727
     48          6           0       -3.111743   -1.769109    0.214200
     49          1           0       -2.253939   -2.422062    0.419584
     50          1           0       -3.584367   -2.163002   -0.691970
     51          1           0       -4.959766   -1.235589    1.199227
     52          1           0       -3.399921    0.247995   -0.545387
     53          1           0       -3.843506    0.703351    2.762785
 ---------------------------------------------------------------------

 SCF Done:  E(RwB97XD) =  -1009.99113915     A.U. after   16 cycles

 Alpha  occ. eigenvalues --  -19.29182 -14.44260 -10.34578 -10.34574 -10.32630
 Alpha  occ. eigenvalues --  -10.31688 -10.30504 -10.30185 -10.29747 -10.29603
 Alpha  occ. eigenvalues --  -10.28816 -10.28800 -10.28536 -10.28478 -10.28386
 Alpha  occ. eigenvalues --  -10.28346 -10.27563 -10.27449 -10.27090 -10.27074
 Alpha  occ. eigenvalues --  -10.26902 -10.26826 -10.25326 -10.24325  -6.83956
 Alpha  occ. eigenvalues --   -1.19677  -1.04689  -0.97003  -0.96258  -0.91880
 Alpha  occ. eigenvalues --   -0.90415  -0.86756  -0.84951  -0.83758  -0.82896
 Alpha  occ. eigenvalues --   -0.82361  -0.81168  -0.79094  -0.78003  -0.75643
 Alpha  occ. eigenvalues --   -0.73447  -0.72801  -0.69495  -0.68719  -0.67054
 Alpha  occ. eigenvalues --   -0.65571  -0.64361  -0.64195  -0.60211  -0.58234
 Alpha  occ. eigenvalues --   -0.56957  -0.56542  -0.56234  -0.55724  -0.55312
 Alpha  occ. eigenvalues --   -0.54518  -0.54152  -0.53356  -0.52925  -0.51479
 Alpha  occ. eigenvalues --   -0.51123  -0.50975  -0.49467  -0.48556  -0.48230
 Alpha  occ. eigenvalues --   -0.47912  -0.47591  -0.47383  -0.46744  -0.46328
 Alpha  occ. eigenvalues --   -0.45633  -0.45401  -0.45092  -0.44842  -0.44507
 Alpha  occ. eigenvalues --   -0.43985  -0.43702  -0.42698  -0.42178  -0.41180
 Alpha  occ. eigenvalues --   -0.40862  -0.40143  -0.39274  -0.36379  -0.36154
 Alpha  occ. eigenvalues --   -0.35393  -0.32665  -0.31879  -0.30134  -0.27493
 Alpha virt. eigenvalues --    0.03643   0.03979   0.04460   0.04593   0.05097
 Alpha virt. eigenvalues --    0.05332   0.05532   0.05694   0.05874   0.06190
 Alpha virt. eigenvalues --    0.06521   0.06827   0.06928   0.07194   0.07320

 Mulliken charges:
               1
     1  C    0.373457
     2  C   -0.337590
     3  C   -0.676725
     4  C   -0.260484
     5  C    0.297732
     6  C    0.059811
     7  H    0.211225
     8  H    0.237045
     9  H    0.172677
    10  C   -0.275288
    11  O   -0.049384
    12  C   -0.458836
    13  H    0.165570
    14  H    0.166401
    15  H    0.201997
    16  C   -0.785231
    17  H    0.184533
    18  H    0.186060
    19  H    0.193355
    20  C    0.255542
    21  C    0.028760
    22  C    0.103330
    23  C    0.217230
    24  C   -0.683970
    25  H    0.163816
    26  C   -0.591873
    27  H    0.243451
    28  H    0.178666
    29  B    0.005687
    30  N    0.328177
    31  C   -0.420695
    32  H    0.188694
    33  H    0.167494
    34  H    0.182111
    35  C   -0.400890
    36  H    0.165217
    37  H    0.151475
    38  H    0.187649
    39  C   -0.230117
    40  H    0.184694
    41  C   -0.237000
    42  H    0.211748
    43  C   -0.785411
    44  H    0.150180
    45  H    0.188342
    46  C   -0.083588
    47  H    0.213657
    48  C   -0.658052
    49  H    0.158191
    50  H    0.179595
    51  H    0.091710
    52  H    0.317878
    53  H    0.221977
 Sum of Mulliken charges =  -0.00000

 Dipole moment (field-independent basis, Debye):
    X=             -0.7695    Y=              0.4109    Z=             -0.4468  Tot=              0.9801
 Quadrupole moment (field-independent basis, Debye-Ang):
   XX=           -140.3870   YY=           -141.6425   ZZ=           -148.4226
   XY=              2.6067   XZ=              7.3128   YZ=             -2.4356

 ESP charges:
               1
     1  C   -0.251134
     2  C   -0.106880
     3  C   -0.147165
     4  C   -0.113668
     5  C   -0.132377
     6  C    0.256532
     7  H    0.102492
     8  H    0.105505
     9  H    0.110539
    10  C    0.376085
    11  O   -0.275618
    12  C   -0.288735
    13  H    0.083077
    14  H    0.086511
    15  H    0.038080
    16  C   -0.170630
    17  H    0.031343
    18  H    0.029120
    19  H    0.034811
    20  C   -0.101059
    21  C    0.138274
    22  C   -0.152419
    23  C    0.094650
    24  C   -0.162780
    25  H    0.123453
    26  C   -0.176110
    27  H    0.117052
    28  H    0.130496
    29  B    0.494561
    30  N   -0.055347
    31  C   -0.028516
    32  H    0.006444
    33  H    0.050224
    34  H    0.054067
    35  C   -0.215145
    36  H    0.104152
    37  H    0.070848
    38  H    0.079032
    39  C   -0.232730
    40  H    0.015720
    41  C   -0.158537
    42  H   -0.020935
    43  C    0.098495
    44  H   -0.015586
    45  H   -0.013354
    46  C   -0.105600
    47  H    0.003941
    48  C    0.126100
    49  H   -0.035724
    50  H   -0.017634
    51  H    0.019347
    52  H   -0.038306
    53  H    0.035038
 Sum of ESP charges =  -0.00000

 Normal termination of Gaussian 16 at Thu Apr 11 14:02:20 2024.
