 Gaussian 16, Revision C.02,
 Gaussian 16:  AS64L-G16RevC.02  7-Dec-2021

 ----------------------------------------------------------------------
 # wb97xd/genecp scrf=(solvent=toluene,pcm) nosymm pop=(chelpg) scfcyc=
 300
 ----------------------------------------------------------------------

 ----------------------
 ethy_metriazole_chelpg
 ----------------------
 Symbolic Z-matrix:
 Charge =  0 Multiplicity = 1

                          Input orientation:
 ---------------------------------------------------------------------
 Center     Atomic      Atomic             Coordinates (Angstroms)
 Number     Number       Type             X           Y           Z
 ---------------------------------------------------------------------
      1          6           0        2.608753    1.613085    1.169613
      2          1           0        2.652504    2.123672    2.117787
      3          6           0        3.154378    0.413812    0.742346
      4          7           0        1.941979    2.094116    0.116294
      5          7           0        2.054437    1.252941   -0.936423
      6          7           0        2.771425    0.253363   -0.569120
      7          5           0        4.015504   -0.583062    1.526610
      8          6           0        1.216083    3.342949   -0.022263
      9          1           0        1.888326    4.135102   -0.353747
     10          1           0        0.429458    3.198070   -0.759850
     11          1           0        0.775721    3.607629    0.937678
     12          6           0        4.529364   -1.864187    0.886063
     13          6           0        4.942152   -2.882156    0.386904
     14          1           0        5.302250   -3.779073   -0.062409
     15          6           0        4.366180   -0.281289    2.983854
     16          6           0        4.637883   -0.034301    4.133633
     17          1           0        4.884404    0.172646    5.149871
 ---------------------------------------------------------------------

 SCF Done:  E(RwB97XD) =  -459.273630882     A.U. after   16 cycles

 Alpha  occ. eigenvalues --  -14.54212 -14.50341 -14.46835 -10.34853 -10.34292
 Alpha  occ. eigenvalues --  -10.30566 -10.30214 -10.29645 -10.28456 -10.27798
 Alpha  occ. eigenvalues --   -6.88783  -1.22376  -1.03879  -0.92192  -0.86696
 Alpha  occ. eigenvalues --   -0.85528  -0.84820  -0.74895  -0.70513  -0.68629
 Alpha  occ. eigenvalues --   -0.64057  -0.63564  -0.60266  -0.60146  -0.55748
 Alpha  occ. eigenvalues --   -0.52961  -0.51986  -0.51890  -0.50178  -0.43416
 Alpha  occ. eigenvalues --   -0.41694  -0.39049  -0.38008  -0.37446  -0.36912
 Alpha  occ. eigenvalues --   -0.36399  -0.35160
 Alpha virt. eigenvalues --   -0.03115   0.03650   0.04596   0.04688   0.05198
 Alpha virt. eigenvalues --    0.06560   0.07067   0.07294   0.07575   0.08438
 Alpha virt. eigenvalues --    0.08941   0.09355   0.09862   0.10276   0.10791

 Mulliken charges:
               1
     1  C   -0.264090
     2  H    0.279732
     3  C   -0.706617
     4  N    0.212435
     5  N    0.063418
     6  N   -0.139269
     7  B    0.429039
     8  C   -0.363514
     9  H    0.218231
    10  H    0.208798
    11  H    0.183543
    12  C    0.067173
    13  C   -0.377449
    14  H    0.309000
    15  C    0.309306
    16  C   -0.734579
    17  H    0.304843
 Sum of Mulliken charges =  -0.00000

 Dipole moment (field-independent basis, Debye):
    X=             -1.2754    Y=              4.3699    Z=              3.3681  Tot=              5.6628
 Quadrupole moment (field-independent basis, Debye-Ang):
   XX=            -67.5846   YY=            -42.5795   ZZ=            -56.8051
   XY=              3.6316   XZ=              8.9064   YZ=              7.7337

 ESP charges:
               1
     1  C   -0.331162
     2  H    0.160151
     3  C    0.139171
     4  N    0.620577
     5  N   -0.332145
     6  N   -0.340926
     7  B    0.484522
     8  C   -0.428067
     9  H    0.154271
    10  H    0.133429
    11  H    0.161878
    12  C   -0.197065
    13  C   -0.269818
    14  H    0.262878
    15  C   -0.227742
    16  C   -0.241480
    17  H    0.251529
 Sum of ESP charges =  -0.00000

 1\1\GINC-IRENE4921\SP\RwB97XD\GenECP\C7H6B1N3\PENASFRA\09-Apr-2024\0\\
 # wb97xd/genecp scrf=(solvent=toluene,pcm) nosymm pop=(chelpg) scfcyc=
 300\\ethy_metriazole_chelpg\\0,1\C,0,2.608753,1.613085,1.169613\H,0,2.
 652504,2.123672,2.117787\C,0,3.154378,0.413812,0.742346\N,0,1.941979,2
 .094116,0.116294\N,0,2.054437,1.252941,-0.936423\N,0,2.771425,0.253363
 ,-0.56912\B,0,4.015504,-0.583062,1.52661\C,0,1.216083,3.342949,-0.0222
 63\H,0,1.888326,4.135102,-0.353747\H,0,0.429458,3.19807,-0.75985\H,0,0
 .775721,3.607629,0.937678\C,0,4.529364,-1.864187,0.886063\C,0,4.942152

 Normal termination of Gaussian 16 at Tue Apr  9 15:55:26 2024.
