 Gaussian 16, Revision C.02,
 Gaussian 16:  AS64L-G16RevC.02  7-Dec-2021

 ----------------------------------------------------------------------
 # wb97xd/genecp scrf=(solvent=toluene,pcm) nosymm pop=(chelpg) scfcyc=
 300
 ----------------------------------------------------------------------

 ------------------------
 f_benzopiperidine_chelpg
 ------------------------
 Symbolic Z-matrix:
 Charge =  0 Multiplicity = 1

                          Input orientation:
 ---------------------------------------------------------------------
 Center     Atomic      Atomic             Coordinates (Angstroms)
 Number     Number       Type             X           Y           Z
 ---------------------------------------------------------------------
      1          6           0       -0.602698    0.955754    0.706174
      2          6           0        0.776607    1.061415    0.785332
      3          6           0        1.469112    2.175401    0.286687
      4          6           0        0.725496    3.247514   -0.270408
      5          6           0       -0.667224    3.119811   -0.362548
      6          6           0       -1.316753    1.989344    0.112608
      7          1           0       -1.111430    0.079352    1.089113
      8          1           0        1.345854    0.246547    1.218945
      9          1           0       -1.256823    3.922855   -0.784897
     10          1           0       -2.397089    1.928238    0.034086
     11          5           0        3.006265    2.052410    0.246777
     12          6           0        0.667174    5.260697   -1.661935
     13          6           0        2.094715    5.182233    0.290256
     14          6           0        1.645652    6.191166   -2.374177
     15          6           0        3.118247    6.109206   -0.350787
     16          6           0        2.445755    7.022730   -1.373884
     17          1           0        1.087522    6.838093   -3.057256
     18          1           0        2.328043    5.584241   -2.978770
     19          1           0        3.607944    6.697385    0.430821
     20          1           0        3.884878    5.500347   -0.839317
     21          1           0        3.189089    7.634847   -1.891745
     22          1           0        1.769245    7.713227   -0.853862
     23          7           0        1.378315    4.401557   -0.723883
     24          1           0        2.578809    4.509386    0.995830
     25          1           0        1.366650    5.781390    0.866991
     26          1           0       -0.100763    5.867150   -1.147343
     27          1           0        0.157922    4.632026   -2.394977
     28          9           0        3.829305    2.841763   -0.439693
     29          9           0        3.618939    1.053820    0.895866
 ---------------------------------------------------------------------

 SCF Done:  E(RwB97XD) =  -707.000193110     A.U. after   16 cycles

 Alpha  occ. eigenvalues --  -24.81575 -24.81486 -14.44278 -10.34076 -10.31337
 Alpha  occ. eigenvalues --  -10.31227 -10.30189 -10.30116 -10.29089 -10.28843
 Alpha  occ. eigenvalues --  -10.28435 -10.27954 -10.27854 -10.27704  -6.95369
 Alpha  occ. eigenvalues --   -1.33834  -1.30620  -1.05665  -0.96306  -0.90578
 Alpha  occ. eigenvalues --   -0.86664  -0.85479  -0.84206  -0.75546  -0.73672
 Alpha  occ. eigenvalues --   -0.70612  -0.69522  -0.66769  -0.65336  -0.63392
 Alpha  occ. eigenvalues --   -0.61956  -0.59132  -0.58138  -0.56722  -0.56461
 Alpha  occ. eigenvalues --   -0.55123  -0.54425  -0.53083  -0.52320  -0.51636
 Alpha  occ. eigenvalues --   -0.50883  -0.50356  -0.49500  -0.48849  -0.47817
 Alpha  occ. eigenvalues --   -0.45974  -0.44544  -0.43347  -0.42659  -0.41465
 Alpha  occ. eigenvalues --   -0.40500  -0.39982  -0.36180  -0.34539  -0.28714
 Alpha virt. eigenvalues --    0.01183   0.03994   0.04764   0.05177   0.05439
 Alpha virt. eigenvalues --    0.05622   0.06248   0.06406   0.07551   0.07908
 Alpha virt. eigenvalues --    0.08194   0.08498   0.08688   0.09843   0.10156

 Mulliken charges:
               1
     1  C   -0.466254
     2  C   -0.032815
     3  C   -0.406136
     4  C   -0.394987
     5  C    0.046337
     6  C   -0.277205
     7  H    0.211680
     8  H    0.237780
     9  H    0.192284
    10  H    0.243008
    11  B    0.280496
    12  C   -0.104055
    13  C   -0.381837
    14  C   -0.566771
    15  C   -0.394936
    16  C   -0.324185
    17  H    0.195738
    18  H    0.179688
    19  H    0.188909
    20  H    0.175697
    21  H    0.193307
    22  H    0.150539
    23  N    0.367807
    24  H    0.139361
    25  H    0.198202
    26  H    0.166032
    27  H    0.177119
    28  F    0.021372
    29  F   -0.016174
 Sum of Mulliken charges =  -0.00000

 Dipole moment (field-independent basis, Debye):
    X=             -2.5037    Y=              1.9658    Z=             -0.3743  Tot=              3.2052
 Quadrupole moment (field-independent basis, Debye-Ang):
   XX=            -95.1871   YY=            -70.1418   ZZ=            -88.2119
   XY=             -0.9049   XZ=              0.7767   YZ=             -3.5850

 ESP charges:
               1
     1  C   -0.215925
     2  C    0.033910
     3  C   -0.495052
     4  C    0.535172
     5  C   -0.270640
     6  C   -0.008275
     7  H    0.120230
     8  H    0.084168
     9  H    0.115314
    10  H    0.099905
    11  B    0.886538
    12  C    0.248641
    13  C    0.267063
    14  C   -0.099796
    15  C   -0.054855
    16  C    0.047558
    17  H    0.013830
    18  H    0.050186
    19  H    0.004282
    20  H    0.052545
    21  H   -0.001480
    22  H    0.001995
    23  N   -0.652219
    24  H   -0.015788
    25  H   -0.032604
    26  H    0.004756
    27  H   -0.001046
    28  F   -0.355256
    29  F   -0.363155
 Sum of ESP charges =  -0.00000

 Normal termination of Gaussian 16 at Wed Apr 10 16:00:51 2024.
