 Gaussian 16, Revision C.02,
 Gaussian 16:  AS64L-G16RevC.02  7-Dec-2021

 ----------------------------------------------------------------------
 # wb97xd/genecp scrf=(solvent=toluene,pcm) nosymm pop=(chelpg) scfcyc=
 300
 ----------------------------------------------------------------------

 ---------------------
 f_clmetriazole_chelpg
 ---------------------
 Symbolic Z-matrix:
 Charge =  0 Multiplicity = 1

                          Input orientation:
 ---------------------------------------------------------------------
 Center     Atomic      Atomic             Coordinates (Angstroms)
 Number     Number       Type             X           Y           Z
 ---------------------------------------------------------------------
      1          6           0        2.660189    1.668016    1.159620
      2          6           0        3.153185    0.433090    0.778921
      3          7           0        2.035002    2.163085    0.080784
      4          7           0        2.125224    1.285236   -0.939243
      5          7           0        2.785081    0.261016   -0.528517
      6          5           0        3.954213   -0.616153    1.564349
      7          6           0        1.336506    3.425003   -0.079754
      8          1           0        0.967603    3.455007   -1.102083
      9          1           0        0.501728    3.479937    0.618947
     10          1           0        2.021598    4.254843    0.093088
     11          9           0        4.337129   -1.753911    1.008768
     12          9           0        4.291535   -0.417544    2.834004
     13         17           0        2.740664    2.522761    2.631470
 ---------------------------------------------------------------------

 SCF Done:  E(RwB97XD) =  -965.199207486     A.U. after   15 cycles

 Alpha  occ. eigenvalues -- -101.77003 -24.83154 -24.82906 -14.55750 -14.51778
 Alpha  occ. eigenvalues --  -14.48388 -10.41645 -10.35054 -10.32620  -9.63863
 Alpha  occ. eigenvalues --   -7.38837  -7.37772  -7.37736  -6.97344  -1.35301
 Alpha  occ. eigenvalues --   -1.32361  -1.24256  -1.06397  -1.01128  -0.91415
 Alpha  occ. eigenvalues --   -0.86285  -0.76444  -0.70969  -0.68631  -0.64791
 Alpha  occ. eigenvalues --   -0.63310  -0.62098  -0.60280  -0.59138  -0.56906
 Alpha  occ. eigenvalues --   -0.53668  -0.53122  -0.53083  -0.52073  -0.50447
 Alpha  occ. eigenvalues --   -0.48029  -0.45036  -0.44484  -0.39738  -0.37715
 Alpha  occ. eigenvalues --   -0.36198
 Alpha virt. eigenvalues --    0.01985   0.03792   0.04189   0.05602   0.06314
 Alpha virt. eigenvalues --    0.07264   0.08082   0.08615   0.08731   0.08926
 Alpha virt. eigenvalues --    0.11502   0.12159   0.13328   0.13929   0.14895

 Mulliken charges:
               1
     1  C   -0.316968
     2  C   -0.823085
     3  N    0.319151
     4  N   -0.039664
     5  N   -0.123674
     6  B    0.327362
     7  C   -0.435105
     8  H    0.207122
     9  H    0.216161
    10  H    0.215643
    11  F    0.006987
    12  F   -0.008029
    13  Cl   0.454098
 Sum of Mulliken charges =  -0.00000

 Dipole moment (field-independent basis, Debye):
    X=             -2.1244    Y=              5.2238    Z=              1.5019  Tot=              5.8359
 Quadrupole moment (field-independent basis, Debye-Ang):
   XX=            -71.6007   YY=            -47.5357   ZZ=            -67.1742
   XY=             10.5360   XZ=              1.1754   YZ=              2.0543

 ESP charges:
               1
     1  C   -0.139695
     2  C    0.046763
     3  N    0.562414
     4  N   -0.322073
     5  N   -0.302275
     6  B    0.753455
     7  C   -0.342032
     8  H    0.134441
     9  H    0.134581
    10  H    0.134712
    11  F   -0.326555
    12  F   -0.321772
    13  Cl  -0.011963
 Sum of ESP charges =  -0.00000

 Normal termination of Gaussian 16 at Wed Apr 10 13:47:49 2024.
