 Gaussian 16, Revision C.02,
 Gaussian 16:  AS64L-G16RevC.02  7-Dec-2021

 ----------------------------------------------------------------------
 # wb97xd/genecp scrf=(solvent=toluene,pcm) nosymm pop=(chelpg) scfcyc=
 300
 ----------------------------------------------------------------------

 ---------------------
 f_dimetriazole_chelpg
 ---------------------
 Symbolic Z-matrix:
 Charge =  0 Multiplicity = 1

                          Input orientation:
 ---------------------------------------------------------------------
 Center     Atomic      Atomic             Coordinates (Angstroms)
 Number     Number       Type             X           Y           Z
 ---------------------------------------------------------------------
      1          6           0        2.651254    1.671534    1.182253
      2          6           0        3.095401    0.415902    0.793176
      3          7           0        2.083741    2.175760    0.072739
      4          7           0        2.161040    1.300290   -0.953702
      5          7           0        2.762930    0.250399   -0.528082
      6          5           0        3.830014   -0.659627    1.596219
      7          6           0        1.454681    3.468306   -0.110116
      8          1           0        1.095702    3.513922   -1.135706
      9          1           0        0.615167    3.578521    0.577518
     10          1           0        2.177989    4.266863    0.061128
     11          9           0        4.191804   -1.820407    1.068879
     12          9           0        4.143438   -0.471632    2.881127
     13          6           0        2.711282    2.416270    2.468108
     14          1           0        3.224500    1.824056    3.222833
     15          1           0        3.246607    3.361565    2.345000
     16          1           0        1.705664    2.644744    2.831210
 ---------------------------------------------------------------------

 SCF Done:  E(RwB97XD) =  -544.922200816     A.U. after   15 cycles

 Alpha  occ. eigenvalues --  -24.82599 -24.82205 -14.53846 -14.50305 -14.46943
 Alpha  occ. eigenvalues --  -10.35952 -10.34350 -10.31074 -10.30684  -6.96376
 Alpha  occ. eigenvalues --   -1.34626  -1.31622  -1.22399  -1.04140  -0.93867
 Alpha  occ. eigenvalues --   -0.85158  -0.83667  -0.74499  -0.68932  -0.67833
 Alpha  occ. eigenvalues --   -0.63346  -0.62289  -0.60849  -0.58598  -0.58469
 Alpha  occ. eigenvalues --   -0.54014  -0.53102  -0.52752  -0.52737  -0.51672
 Alpha  occ. eigenvalues --   -0.51208  -0.50519  -0.48194  -0.43097  -0.38591
 Alpha  occ. eigenvalues --   -0.36769  -0.35471
 Alpha virt. eigenvalues --    0.03308   0.03477   0.05312   0.05360   0.06259
 Alpha virt. eigenvalues --    0.06677   0.07830   0.08598   0.08630   0.09562
 Alpha virt. eigenvalues --    0.10347   0.11092   0.12332   0.13594   0.14316

 Mulliken charges:
               1
     1  C    0.140908
     2  C   -0.632791
     3  N    0.273020
     4  N   -0.091604
     5  N   -0.135736
     6  B    0.353413
     7  C   -0.383776
     8  H    0.217399
     9  H    0.200011
    10  H    0.204138
    11  F   -0.014590
    12  F   -0.042451
    13  C   -0.680872
    14  H    0.211424
    15  H    0.188812
    16  H    0.192694
 Sum of Mulliken charges =  -0.00000

 Dipole moment (field-independent basis, Debye):
    X=             -1.8976    Y=              6.2791    Z=              2.9830  Tot=              7.2060
 Quadrupole moment (field-independent basis, Debye-Ang):
   XX=            -65.5633   YY=            -40.2383   ZZ=            -58.8716
   XY=             14.5353   XZ=              4.9377   YZ=              6.3345

 ESP charges:
               1
     1  C    0.037860
     2  C   -0.079977
     3  N    0.490679
     4  N   -0.333358
     5  N   -0.297686
     6  B    0.771088
     7  C   -0.340576
     8  H    0.123410
     9  H    0.137356
    10  H    0.137604
    11  F   -0.337505
    12  F   -0.329654
    13  C   -0.381059
    14  H    0.148383
    15  H    0.126991
    16  H    0.126445
 Sum of ESP charges =   0.00000

 Normal termination of Gaussian 16 at Tue Apr  9 18:20:13 2024.
