 Gaussian 16, Revision C.02,
 Gaussian 16:  AS64L-G16RevC.02  7-Dec-2021

 ----------------------------------------------------------------------
 # wb97xd/genecp scrf=(solvent=toluene,pcm) nosymm pop=(chelpg) scfcyc=
 300
 ----------------------------------------------------------------------

 ---------------------
 f_dibenzofuran_chelpg
 ---------------------
 Symbolic Z-matrix:
 Charge =  0 Multiplicity = 1

                          Input orientation:
 ---------------------------------------------------------------------
 Center     Atomic      Atomic             Coordinates (Angstroms)
 Number     Number       Type             X           Y           Z
 ---------------------------------------------------------------------
      1          6           0        2.099379    2.167042    0.195915
      2          6           0        1.908591    2.533470   -1.140210
      3          8           0        1.620371    3.117834    1.039100
      4          6           0        1.256044    3.828591   -1.101446
      5          6           0        1.118285    4.125430    0.251674
      6          6           0        0.767300    4.706464   -2.069991
      7          6           0        0.510153    5.291420    0.739540
      8          6           0        0.153156    5.861385   -1.622210
      9          1           0        0.858311    4.486892   -3.126675
     10          6           0        0.033130    6.150830   -0.256970
     11          1           0       -0.242443    6.573012   -2.338000
     12          1           0       -0.445543    7.078054    0.028877
     13          6           0        2.332611    1.674995   -2.148953
     14          1           0        2.194113    1.936838   -3.191901
     15          6           0        2.937152    0.474620   -1.794219
     16          1           0        3.273673   -0.206967   -2.566101
     17          6           0        3.116932    0.136510   -0.453713
     18          6           0        2.704363    0.974648    0.592811
     19          1           0        3.593379   -0.805762   -0.207549
     20          5           0        2.932807    0.569477    2.061494
     21          7           0        0.354840    5.523371    2.108224
     22          6           0        1.550867    5.409672    2.937294
     23          1           0        2.228598    6.264337    2.788028
     24          1           0        1.251115    5.385357    3.986734
     25          1           0        2.087548    4.489732    2.719795
     26          6           0       -0.480338    6.644734    2.490144
     27          1           0       -0.652655    6.595936    3.566659
     28          1           0       -0.022765    7.621215    2.262237
     29          1           0       -1.448816    6.585189    1.990322
     30          9           0        2.599404    1.336831    3.093033
     31          9           0        3.498341   -0.599136    2.366017
 ---------------------------------------------------------------------

 SCF Done:  E(RwB97XD) =  -895.311462763     A.U. after   16 cycles

 Alpha  occ. eigenvalues --  -24.82301 -24.82251 -19.32192 -14.45108 -10.36693
 Alpha  occ. eigenvalues --  -10.35254 -10.33924 -10.31355 -10.31122 -10.31033
 Alpha  occ. eigenvalues --  -10.30890 -10.30629 -10.30369 -10.29985 -10.29781
 Alpha  occ. eigenvalues --  -10.29341 -10.29271 -10.29148  -6.96271  -1.34520
 Alpha  occ. eigenvalues --   -1.31478  -1.23165  -1.05504  -0.98228  -0.96547
 Alpha  occ. eigenvalues --   -0.89919  -0.87672  -0.85079  -0.84173  -0.81501
 Alpha  occ. eigenvalues --   -0.76876  -0.74535  -0.72796  -0.70602  -0.68606
 Alpha  occ. eigenvalues --   -0.66417  -0.63754  -0.62766  -0.62413  -0.60248
 Alpha  occ. eigenvalues --   -0.59002  -0.58658  -0.57621  -0.57214  -0.55540
 Alpha  occ. eigenvalues --   -0.55272  -0.55065  -0.53692  -0.52946  -0.51734
 Alpha  occ. eigenvalues --   -0.50799  -0.50624  -0.50025  -0.48690  -0.47839
 Alpha  occ. eigenvalues --   -0.46912  -0.46683  -0.45795  -0.45490  -0.45139
 Alpha  occ. eigenvalues --   -0.44225  -0.42330  -0.39077  -0.36529  -0.33182
 Alpha  occ. eigenvalues --   -0.30924  -0.27998
 Alpha virt. eigenvalues --   -0.00401   0.03703   0.03939   0.04460   0.04964
 Alpha virt. eigenvalues --    0.05868   0.06079   0.06194   0.06835   0.07394
 Alpha virt. eigenvalues --    0.07674   0.07827   0.08177   0.08315   0.09207

 Mulliken charges:
               1
     1  C   -0.842515
     2  C    1.307570
     3  O    0.011904
     4  C    1.334927
     5  C   -1.199949
     6  C   -0.412175
     7  C   -0.468373
     8  C   -0.385429
     9  H    0.175330
    10  C    0.448425
    11  H    0.237355
    12  H    0.199775
    13  C   -0.305322
    14  H    0.198147
    15  C   -0.224514
    16  H    0.239348
    17  C   -0.171812
    18  C   -0.914566
    19  H    0.234368
    20  B    0.341168
    21  N    0.074119
    22  C   -0.461088
    23  H    0.174329
    24  H    0.163347
    25  H    0.163953
    26  C   -0.380837
    27  H    0.184377
    28  H    0.163172
    29  H    0.164089
    30  F   -0.038923
    31  F   -0.010197
 Sum of Mulliken charges =  -0.00000

 Dipole moment (field-independent basis, Debye):
    X=             -0.4301    Y=              1.9823    Z=             -2.0339  Tot=              2.8725
 Quadrupole moment (field-independent basis, Debye-Ang):
   XX=           -110.7562   YY=            -88.3958   ZZ=           -102.8101
   XY=             -3.6613   XZ=             -7.0992   YZ=              5.4212

 ESP charges:
               1
     1  C    0.373252
     2  C   -0.020717
     3  O   -0.299400
     4  C    0.037081
     5  C    0.036672
     6  C   -0.216333
     7  C    0.338672
     8  C   -0.129530
     9  H    0.140940
    10  C   -0.253511
    11  H    0.119328
    12  H    0.150027
    13  C   -0.103490
    14  H    0.131802
    15  C   -0.159977
    16  H    0.113487
    17  C   -0.021233
    18  C   -0.432406
    19  H    0.105603
    20  B    0.892726
    21  N   -0.393123
    22  C    0.100956
    23  H   -0.004471
    24  H    0.048102
    25  H    0.038086
    26  C   -0.089161
    27  H    0.094839
    28  H    0.057063
    29  H    0.060775
    30  F   -0.351030
    31  F   -0.365030
 Sum of ESP charges =  -0.00000

 Normal termination of Gaussian 16 at Wed Apr 10 16:56:38 2024.
