 Gaussian 16, Revision C.02,
 Gaussian 16:  AS64L-G16RevC.02  7-Dec-2021

 ----------------------------------------------------------------------
 # wb97xd/genecp scrf=(solvent=toluene,pcm) nosymm pop=(chelpg) scfcyc=
 300
 ----------------------------------------------------------------------

 ---------------
 f_indole_chelpg
 ---------------
 Symbolic Z-matrix:
 Charge =  0 Multiplicity = 1

                          Input orientation:
 ---------------------------------------------------------------------
 Center     Atomic      Atomic             Coordinates (Angstroms)
 Number     Number       Type             X           Y           Z
 ---------------------------------------------------------------------
      1          6           0       -1.118782   -1.233448   -0.191624
      2          6           0       -2.495780   -1.279978   -0.097905
      3          6           0       -1.836491    0.888936   -0.145263
      4          6           0       -1.937167    2.289243   -0.138552
      5          6           0       -3.193858    2.854248   -0.052875
      6          6           0       -4.340734    2.021533    0.025407
      7          6           0       -4.246560    0.650058    0.019399
      8          6           0       -2.973972    0.056829   -0.066982
      9          1           0       -1.053456    2.915348   -0.198416
     10          1           0       -5.316903    2.491398    0.091987
     11          1           0       -5.137097    0.034086    0.080278
     12          7           0       -0.723833    0.101772   -0.220941
     13          1           0       -3.083419   -2.184766   -0.057222
     14          5           0       -0.222605   -2.468779   -0.250237
     15          6           0        0.622523    0.632758   -0.307170
     16          1           0        0.853533    1.227305    0.580554
     17          1           0        1.335918   -0.182881   -0.377125
     18          1           0        0.723004    1.264024   -1.193662
     19          6           0       -3.372039    4.349748   -0.040697
     20          1           0       -3.873893    4.674603    0.875355
     21          1           0       -2.413124    4.867372   -0.103671
     22          1           0       -3.989610    4.675083   -0.882917
     23          9           0        1.109975   -2.434826   -0.342049
     24          9           0       -0.761537   -3.687555   -0.210074
 ---------------------------------------------------------------------

 SCF Done:  E(RwB97XD) =  -666.488076045     A.U. after   15 cycles

 Alpha  occ. eigenvalues --  -24.82597 -24.82086 -14.49020 -10.32540 -10.32523
 Alpha  occ. eigenvalues --  -10.31217 -10.30413 -10.29491 -10.29176 -10.29128
 Alpha  occ. eigenvalues --  -10.28975 -10.28433 -10.28120  -6.96175  -1.34550
 Alpha  occ. eigenvalues --   -1.31476  -1.10235  -0.96205  -0.91697  -0.85996
 Alpha  occ. eigenvalues --   -0.85581  -0.79636  -0.78467  -0.71859  -0.68866
 Alpha  occ. eigenvalues --   -0.68247  -0.65974  -0.62779  -0.62307  -0.58730
 Alpha  occ. eigenvalues --   -0.58685  -0.57617  -0.56227  -0.54980  -0.53833
 Alpha  occ. eigenvalues --   -0.53034  -0.52150  -0.51174  -0.51069  -0.50178
 Alpha  occ. eigenvalues --   -0.48601  -0.48399  -0.46826  -0.45472  -0.44440
 Alpha  occ. eigenvalues --   -0.42374  -0.41734  -0.36806  -0.30560  -0.29034
 Alpha virt. eigenvalues --    0.00700   0.03879   0.04859   0.05057   0.06500
 Alpha virt. eigenvalues --    0.06550   0.06763   0.07115   0.07708   0.08142
 Alpha virt. eigenvalues --    0.08797   0.08916   0.09226   0.09385   0.10577

 Mulliken charges:
               1
     1  C   -0.540499
     2  C    0.336207
     3  C   -0.622594
     4  C   -0.719723
     5  C    0.616227
     6  C   -0.566533
     7  C   -0.309776
     8  C    0.270591
     9  H    0.181446
    10  H    0.202695
    11  H    0.217822
    12  N    0.213081
    13  H    0.248737
    14  B    0.355220
    15  C   -0.425224
    16  H    0.202908
    17  H    0.154839
    18  H    0.197090
    19  C   -0.483918
    20  H    0.185035
    21  H    0.175338
    22  H    0.185426
    23  F   -0.050352
    24  F   -0.024041
 Sum of Mulliken charges =  -0.00000

 Dipole moment (field-independent basis, Debye):
    X=              0.2344    Y=              3.1377    Z=             -0.0152  Tot=              3.1465
 Quadrupole moment (field-independent basis, Debye-Ang):
   XX=            -75.3348   YY=            -80.8188   ZZ=            -82.9852
   XY=             -0.5169   XZ=             -0.5886   YZ=             -0.7927

 ESP charges:
               1
     1  C   -0.280058
     2  C   -0.303582
     3  C    0.176595
     4  C   -0.379740
     5  C    0.231165
     6  C   -0.242048
     7  C   -0.213854
     8  C    0.152168
     9  H    0.174678
    10  H    0.137100
    11  H    0.145610
    12  N   -0.029203
    13  H    0.176703
    14  B    0.841347
    15  C   -0.090984
    16  H    0.066199
    17  H    0.096304
    18  H    0.065902
    19  C   -0.258400
    20  H    0.075905
    21  H    0.078618
    22  H    0.076086
    23  F   -0.340674
    24  F   -0.355837
 Sum of ESP charges =   0.00000

 Normal termination of Gaussian 16 at Wed Apr 10 15:42:38 2024.
