 Gaussian 16, Revision C.02,
 Gaussian 16:  AS64L-G16RevC.02  7-Dec-2021

 ----------------------------------------------------------------------
 # wb97xd/genecp scrf=(solvent=toluene,pcm) nosymm pop=(chelpg) scfcyc=
 300
 ----------------------------------------------------------------------

 -------------------
 f_metriazole_chelpg
 -------------------
 Symbolic Z-matrix:
 Charge =  0 Multiplicity = 1

                          Input orientation:
 ---------------------------------------------------------------------
 Center     Atomic      Atomic             Coordinates (Angstroms)
 Number     Number       Type             X           Y           Z
 ---------------------------------------------------------------------
      1          6           0        2.657406    1.663348    1.148806
      2          1           0        2.713568    2.191409    2.086473
      3          6           0        3.140753    0.434630    0.744832
      4          7           0        2.033184    2.160329    0.073285
      5          7           0        2.113422    1.297864   -0.959376
      6          7           0        2.772669    0.266607   -0.564771
      7          5           0        3.939925   -0.600271    1.545730
      8          9           0        4.262562   -0.367487    2.817810
      9          9           0        4.341598   -1.750789    1.028935
     10          6           0        1.337175    3.425338   -0.079220
     11          1           0        0.957454    3.467163   -1.097654
     12          1           0        0.506569    3.481083    0.624086
     13          1           0        2.025656    4.253047    0.089499
 ---------------------------------------------------------------------

 SCF Done:  E(RwB97XD) =  -505.600357043     A.U. after   15 cycles

 Alpha  occ. eigenvalues --  -24.82811 -24.82589 -14.54734 -14.50877 -14.47438
 Alpha  occ. eigenvalues --  -10.35408 -10.34550 -10.31467  -6.96800  -1.34928
 Alpha  occ. eigenvalues --   -1.31976  -1.23015  -1.04367  -0.92863  -0.85459
 Alpha  occ. eigenvalues --   -0.75402  -0.70969  -0.68150  -0.64884  -0.63014
 Alpha  occ. eigenvalues --   -0.60754  -0.59461  -0.58754  -0.55501  -0.53359
 Alpha  occ. eigenvalues --   -0.52446  -0.52377  -0.51724  -0.49368  -0.43488
 Alpha  occ. eigenvalues --   -0.39473  -0.37474  -0.36745
 Alpha virt. eigenvalues --    0.02620   0.03605   0.04526   0.05586   0.06472
 Alpha virt. eigenvalues --    0.07492   0.08246   0.08702   0.08794   0.09909
 Alpha virt. eigenvalues --    0.11462   0.14007   0.14500   0.14699   0.15232

 Mulliken charges:
               1
     1  C   -0.259572
     2  H    0.256047
     3  C   -0.511382
     4  N    0.226728
     5  N   -0.090588
     6  N   -0.150962
     7  B    0.374069
     8  F   -0.042921
     9  F   -0.016404
    10  C   -0.402843
    11  H    0.209980
    12  H    0.203677
    13  H    0.204172
 Sum of Mulliken charges =  -0.00000

 Dipole moment (field-independent basis, Debye):
    X=             -2.1003    Y=              5.7766    Z=              2.4015  Tot=              6.5991
 Quadrupole moment (field-independent basis, Debye-Ang):
   XX=            -60.3635   YY=            -34.7083   ZZ=            -54.4350
   XY=             12.3606   XZ=              3.2024   YZ=              4.4645

 ESP charges:
               1
     1  C   -0.327235
     2  H    0.181037
     3  C    0.058828
     4  N    0.585365
     5  N   -0.325466
     6  N   -0.315576
     7  B    0.746108
     8  F   -0.325473
     9  F   -0.329662
    10  C   -0.334277
    11  H    0.115804
    12  H    0.135394
    13  H    0.135152
 Sum of ESP charges =  -0.00000

 Normal termination of Gaussian 16 at Tue Apr  9 17:46:09 2024.
