 Gaussian 16, Revision C.02,
 Gaussian 16:  AS64L-G16RevC.02  7-Dec-2021

 ----------------------------------------------------------------------
 # wb97xd/genecp scrf=(solvent=toluene,pcm) nosymm pop=(chelpg) scfcyc=
 300
 ----------------------------------------------------------------------

 -----------------------
 f_naphtoxanthene_chelpg
 -----------------------
 Symbolic Z-matrix:
 Charge =  0 Multiplicity = 1

                          Input orientation:
 ---------------------------------------------------------------------
 Center     Atomic      Atomic             Coordinates (Angstroms)
 Number     Number       Type             X           Y           Z
 ---------------------------------------------------------------------
      1          6           0       -2.128739    1.637477    1.202478
      2          6           0       -0.893823    1.815554    1.885195
      3          6           0       -0.097421    2.911659    1.696217
      4          6           0       -0.492611    3.922131    0.788667
      5          6           0       -1.712029    3.776140    0.096965
      6          6           0       -2.514630    2.634984    0.314169
      7          1           0       -0.580594    1.044898    2.580187
      8          1           0        0.838514    3.014026    2.233415
      9          6           0       -2.136388    4.768359   -0.829295
     10          8           0       -3.686593    2.487937   -0.350356
     11          6           0       -3.375128    4.577868   -1.506442
     12          6           0       -4.134541    3.430623   -1.240894
     13          6           0       -3.815133    5.527810   -2.452375
     14          6           0       -5.350812    3.194774   -1.877633
     15          6           0       -5.029343    5.282798   -3.112842
     16          6           0       -5.767592    4.156455   -2.824429
     17          1           0       -5.392708    5.992806   -3.847653
     18          1           0       -6.707533    4.004626   -3.339541
     19          5           0       -2.947113    0.365723    1.482680
     20          7           0       -6.088201    2.031456   -1.599772
     21          6           0       -6.585002    1.910519   -0.233126
     22          1           0       -7.429840    2.593530   -0.049552
     23          1           0       -6.922289    0.885642   -0.065732
     24          1           0       -5.793952    2.120939    0.481896
     25          6           0       -7.086784    1.643674   -2.576542
     26          1           0       -7.405388    0.622469   -2.356899
     27          1           0       -7.983855    2.285181   -2.563374
     28          1           0       -6.659850    1.656232   -3.580903
     29          6           0       -2.995889    6.680126   -2.685908
     30          1           0       -3.334531    7.414871   -3.408750
     31          6           0       -1.822617    6.860095   -2.025141
     32          1           0       -1.217690    7.740474   -2.214800
     33          6           0       -1.356434    5.896942   -1.073016
     34          6           0       -0.127896    6.032907   -0.362201
     35          6           0        0.286680    5.089745    0.529856
     36          1           0        0.484073    6.910350   -0.544945
     37          1           0        1.225778    5.212970    1.058141
     38          9           0       -4.125204    0.077828    0.941123
     39          9           0       -2.479917   -0.551796    2.337731
 ---------------------------------------------------------------------

 SCF Done:  E(RwB97XD) =  -1125.15607063     A.U. after   17 cycles

 Alpha  occ. eigenvalues --  -24.81624 -24.81598 -19.31963 -14.44406 -10.38360
 Alpha  occ. eigenvalues --  -10.36425 -10.33399 -10.31923 -10.31720 -10.31670
 Alpha  occ. eigenvalues --  -10.31410 -10.30953 -10.30820 -10.30651 -10.30621
 Alpha  occ. eigenvalues --  -10.30570 -10.30149 -10.29995 -10.29993 -10.29918
 Alpha  occ. eigenvalues --  -10.29796 -10.29506 -10.29403 -10.28940  -6.95533
 Alpha  occ. eigenvalues --   -1.33888  -1.30757  -1.22304  -1.05060  -1.01091
 Alpha  occ. eigenvalues --   -0.98669  -0.94538  -0.92280  -0.90236  -0.88118
 Alpha  occ. eigenvalues --   -0.86613  -0.84006  -0.81898  -0.80983  -0.76711
 Alpha  occ. eigenvalues --   -0.76316  -0.74596  -0.73958  -0.70269  -0.67500
 Alpha  occ. eigenvalues --   -0.67035  -0.66791  -0.64822  -0.62782  -0.62075
 Alpha  occ. eigenvalues --   -0.61295  -0.59902  -0.58513  -0.58191  -0.57932
 Alpha  occ. eigenvalues --   -0.57061  -0.56318  -0.55403  -0.55078  -0.53938
 Alpha  occ. eigenvalues --   -0.53406  -0.52816  -0.52336  -0.51774  -0.51132
 Alpha  occ. eigenvalues --   -0.50169  -0.50032  -0.48893  -0.48734  -0.48524
 Alpha  occ. eigenvalues --   -0.47756  -0.47299  -0.46296  -0.46229  -0.45445
 Alpha  occ. eigenvalues --   -0.44857  -0.43168  -0.42476  -0.41034  -0.40842
 Alpha  occ. eigenvalues --   -0.38381  -0.35617  -0.35103  -0.32352  -0.29065
 Alpha  occ. eigenvalues --   -0.26083
 Alpha virt. eigenvalues --   -0.00819   0.00614   0.03107   0.03809   0.04104
 Alpha virt. eigenvalues --    0.04439   0.04754   0.05649   0.05795   0.06360
 Alpha virt. eigenvalues --    0.07081   0.07233   0.07608   0.08232   0.08823

 Mulliken charges:
               1
     1  C   -0.670956
     2  C   -0.107333
     3  C   -0.145979
     4  C    0.245913
     5  C    0.077168
     6  C   -0.030832
     7  H    0.248224
     8  H    0.186351
     9  C   -0.107775
    10  O    0.049514
    11  C    0.131955
    12  C   -0.354610
    13  C    0.220434
    14  C   -0.615723
    15  C   -0.065710
    16  C    0.247052
    17  H    0.206126
    18  H    0.214369
    19  B    0.314388
    20  N    0.113730
    21  C   -0.427877
    22  H    0.164457
    23  H    0.184989
    24  H    0.166627
    25  C   -0.360284
    26  H    0.187432
    27  H    0.147889
    28  H    0.169088
    29  C   -0.425340
    30  H    0.187267
    31  C   -0.495956
    32  H    0.194320
    33  C    0.413677
    34  C   -0.300296
    35  C   -0.321956
    36  H    0.202905
    37  H    0.199766
    38  F   -0.014022
    39  F   -0.028990
 Sum of Mulliken charges =  -0.00000

 Dipole moment (field-independent basis, Debye):
    X=             -0.0459    Y=              3.1294    Z=             -1.4215  Tot=              3.4375
 Quadrupole moment (field-independent basis, Debye-Ang):
   XX=           -123.1107   YY=           -122.1351   ZZ=           -137.5649
   XY=             -3.3656   XZ=             14.4548   YZ=             -6.8990

 ESP charges:
               1
     1  C   -0.554646
     2  C    0.041872
     3  C   -0.345215
     4  C    0.291023
     5  C   -0.197873
     6  C    0.558926
     7  H    0.103149
     8  H    0.148462
     9  C    0.075543
    10  O   -0.399261
    11  C   -0.112017
    12  C    0.199643
    13  C    0.213201
    14  C    0.154841
    15  C   -0.370838
    16  C   -0.080419
    17  H    0.170008
    18  H    0.131502
    19  B    0.921719
    20  N   -0.306616
    21  C    0.016607
    22  H   -0.002191
    23  H    0.081574
    24  H    0.055033
    25  C   -0.086650
    26  H    0.081323
    27  H    0.057750
    28  H    0.053054
    29  C   -0.193559
    30  H    0.133449
    31  C   -0.223512
    32  H    0.139213
    33  C    0.125898
    34  C   -0.158368
    35  C   -0.259293
    36  H    0.134421
    37  H    0.147025
    38  F   -0.368889
    39  F   -0.375886
 Sum of ESP charges =  -0.00000

 Normal termination of Gaussian 16 at Wed Apr 10 16:40:54 2024.
