 Gaussian 16, Revision C.02,
 Gaussian 16:  AS64L-G16RevC.02  7-Dec-2021

 ----------------------------------------------------------------------
 # wb97xd/genecp scrf=(solvent=toluene,pcm) nosymm pop=(chelpg) scfcyc=
 300
 ----------------------------------------------------------------------

 --------------------
 f_naphthalene_chelpg
 --------------------
 Symbolic Z-matrix:
 Charge =  0 Multiplicity = 1

                          Input orientation:
 ---------------------------------------------------------------------
 Center     Atomic      Atomic             Coordinates (Angstroms)
 Number     Number       Type             X           Y           Z
 ---------------------------------------------------------------------
      1          6           0       -5.403671   -0.790410    0.263171
      2          6           0       -4.054638   -0.774535    0.061254
      3          6           0       -3.339592    0.432607   -0.028684
      4          6           0       -4.002164    1.671348    0.062651
      5          6           0       -5.405698    1.648449    0.273259
      6          6           0       -6.075265    0.454513    0.376142
      7          1           0       -5.966233   -1.714481    0.330754
      8          6           0       -1.947989    0.291594   -0.212857
      9          6           0       -3.197417    2.830909   -0.064556
     10          1           0       -5.948641    2.584368    0.353709
     11          1           0       -7.146706    0.453028    0.539947
     12          6           0       -1.842817    2.707687   -0.263199
     13          6           0       -1.207801    1.441317   -0.332899
     14          1           0       -3.657377    3.811732   -0.004220
     15          1           0       -1.238779    3.603538   -0.360955
     16          1           0       -0.132641    1.398609   -0.472726
     17          5           0       -1.571510   -1.260962   -0.151334
     18          7           0       -3.183734   -1.937116   -0.137453
     19          6           0       -3.342784   -2.940957    0.942705
     20          1           0       -4.345916   -3.370355    0.909033
     21          1           0       -2.603278   -3.727468    0.798618
     22          1           0       -3.173224   -2.461581    1.903598
     23          6           0       -3.486943   -2.564082   -1.452116
     24          1           0       -2.792779   -3.385271   -1.619876
     25          1           0       -4.514730   -2.932018   -1.453401
     26          1           0       -3.360254   -1.821082   -2.237437
     27          9           0       -0.978968   -1.674971    1.040204
     28          9           0       -0.915464   -1.820103   -1.241447
 ---------------------------------------------------------------------

 SCF Done:  E(RwB97XD) =  -743.907568537     A.U. after   15 cycles

 Alpha  occ. eigenvalues --  -24.76362 -24.76152 -14.52036 -10.34129 -10.32915
 Alpha  occ. eigenvalues --  -10.32870 -10.30930 -10.30748 -10.30471 -10.30202
 Alpha  occ. eigenvalues --  -10.29973 -10.29522 -10.29446 -10.29087 -10.27101
 Alpha  occ. eigenvalues --   -6.91748  -1.27976  -1.24846  -1.09472  -0.98970
 Alpha  occ. eigenvalues --   -0.93504  -0.89118  -0.85579  -0.83897  -0.83007
 Alpha  occ. eigenvalues --   -0.78072  -0.73329  -0.71967  -0.68674  -0.65663
 Alpha  occ. eigenvalues --   -0.61661  -0.61315  -0.60372  -0.59186  -0.58753
 Alpha  occ. eigenvalues --   -0.57604  -0.55590  -0.53780  -0.53704  -0.51950
 Alpha  occ. eigenvalues --   -0.51389  -0.50733  -0.49909  -0.49595  -0.49247
 Alpha  occ. eigenvalues --   -0.48228  -0.47789  -0.46999  -0.45521  -0.45370
 Alpha  occ. eigenvalues --   -0.43175  -0.42546  -0.42397  -0.37786  -0.37639
 Alpha  occ. eigenvalues --   -0.33046  -0.29864
 Alpha virt. eigenvalues --    0.00747   0.03543   0.03652   0.04601   0.05064
 Alpha virt. eigenvalues --    0.05819   0.06287   0.06651   0.07377   0.07555
 Alpha virt. eigenvalues --    0.08206   0.08795   0.08877   0.09618   0.10298

 Mulliken charges:
               1
     1  C   -0.350510
     2  C    0.086358
     3  C   -0.193849
     4  C    0.197931
     5  C   -0.354784
     6  C   -0.326245
     7  H    0.209230
     8  C   -0.405762
     9  C    0.168965
    10  H    0.188205
    11  H    0.239698
    12  C   -0.532798
    13  C   -0.157321
    14  H    0.213355
    15  H    0.220963
    16  H    0.241439
    17  B    0.811080
    18  N   -0.421906
    19  C   -0.296299
    20  H    0.170100
    21  H    0.244459
    22  H    0.242436
    23  C   -0.402453
    24  H    0.244340
    25  H    0.191064
    26  H    0.215542
    27  F   -0.229395
    28  F   -0.213845
 Sum of Mulliken charges =  -0.00000

 Dipole moment (field-independent basis, Debye):
    X=             -5.6059    Y=             -0.8453    Z=             -0.1930  Tot=              5.6725
 Quadrupole moment (field-independent basis, Debye-Ang):
   XX=            -58.6657   YY=            -76.3576   ZZ=            -96.9077
   XY=             13.5035   XZ=             -0.5337   YZ=              0.1621

 ESP charges:
               1
     1  C   -0.147962
     2  C    0.008037
     3  C    0.124285
     4  C    0.169816
     5  C   -0.245569
     6  C   -0.102594
     7  H    0.147828
     8  C   -0.351899
     9  C   -0.243424
    10  H    0.147737
    11  H    0.114340
    12  C   -0.067636
    13  C   -0.047622
    14  H    0.132925
    15  H    0.097460
    16  H    0.090452
    17  B    0.917388
    18  N   -0.019174
    19  C   -0.211186
    20  H    0.094854
    21  H    0.133469
    22  H    0.100705
    23  C   -0.152243
    24  H    0.121477
    25  H    0.082444
    26  H    0.068431
    27  F   -0.483497
    28  F   -0.478843
 Sum of ESP charges =   0.00000

 Normal termination of Gaussian 16 at Wed Apr 10 16:49:00 2024.
