 Gaussian 16, Revision C.02,
 Gaussian 16:  AS64L-G16RevC.02  7-Dec-2021

 ----------------------------------------------------------------------
 # wb97xd/genecp scrf=(solvent=toluene,pcm) nosymm pop=(chelpg) scfcyc=
 300
 ----------------------------------------------------------------------

 ---------------------
 f_nmeimidazole_chelpg
 ---------------------
 Symbolic Z-matrix:
 Charge =  0 Multiplicity = 1

                          Input orientation:
 ---------------------------------------------------------------------
 Center     Atomic      Atomic             Coordinates (Angstroms)
 Number     Number       Type             X           Y           Z
 ---------------------------------------------------------------------
      1          6           0        2.646787    1.591008    1.089789
      2          1           0        2.661659    2.120720    2.029329
      3          6           0        3.191780    0.381566    0.714802
      4          7           0        2.015375    2.087132   -0.006907
      5          7           0        2.889546    0.140968   -0.617006
      6          5           0        4.004635   -0.568905    1.592941
      7          6           0        1.283577    3.338984   -0.097011
      8          1           0        0.942222    3.472339   -1.122556
      9          1           0        0.417467    3.320421    0.565618
     10          1           0        1.931946    4.173669    0.171022
     11          6           0        2.193347    1.171800   -1.006199
     12          1           0        1.784288    1.327606   -1.994330
     13          9           0        4.497691   -1.721582    1.154592
     14          9           0        4.259278   -0.271559    2.871931
 ---------------------------------------------------------------------

 SCF Done:  E(RwB97XD) =  -489.594369368     A.U. after   14 cycles

 Alpha  occ. eigenvalues --  -24.81611 -24.81420 -14.51339 -14.42874 -10.35035
 Alpha  occ. eigenvalues --  -10.34250 -10.33372 -10.29876  -6.95218  -1.33683
 Alpha  occ. eigenvalues --   -1.30677  -1.14541  -1.00576  -0.87217  -0.82971
 Alpha  occ. eigenvalues --   -0.72103  -0.68778  -0.66715  -0.64151  -0.61792
 Alpha  occ. eigenvalues --   -0.58433  -0.57538  -0.57465  -0.54315  -0.53144
 Alpha  occ. eigenvalues --   -0.52220  -0.51061  -0.50214  -0.50174  -0.46268
 Alpha  occ. eigenvalues --   -0.37224  -0.37195  -0.33222
 Alpha virt. eigenvalues --    0.03608   0.03730   0.05356   0.05949   0.06048
 Alpha virt. eigenvalues --    0.07664   0.08182   0.08957   0.09109   0.09865
 Alpha virt. eigenvalues --    0.10546   0.11551   0.12800   0.14776   0.15351

 Mulliken charges:
               1
     1  C   -0.166180
     2  H    0.228890
     3  C   -0.543014
     4  N    0.018075
     5  N   -0.177349
     6  B    0.375098
     7  C   -0.400215
     8  H    0.161862
     9  H    0.209630
    10  H    0.203315
    11  C   -0.063204
    12  H    0.236483
    13  F   -0.036141
    14  F   -0.047250
 Sum of Mulliken charges =  -0.00000

 Dipole moment (field-independent basis, Debye):
    X=             -3.6635    Y=              6.2877    Z=             -0.5478  Tot=              7.2977
 Quadrupole moment (field-independent basis, Debye-Ang):
   XX=            -70.0325   YY=            -37.8677   ZZ=            -52.1653
   XY=             13.0622   XZ=             -2.4431   YZ=              0.2298

 ESP charges:
               1
     1  C   -0.274916
     2  H    0.187550
     3  C    0.003293
     4  N    0.200282
     5  N   -0.601444
     6  B    0.791373
     7  C   -0.372450
     8  H    0.133505
     9  H    0.155982
    10  H    0.157072
    11  C    0.227108
    12  H    0.091817
    13  F   -0.332694
    14  F   -0.366478
 Sum of ESP charges =   0.00000

 Normal termination of Gaussian 16 at Wed Apr 10 15:51:43 2024.
