 Gaussian 16, Revision C.02,
 Gaussian 16:  AS64L-G16RevC.02  7-Dec-2021

 ----------------------------------------------------------------------
 # wb97xd/genecp scrf=(solvent=toluene,pcm) nosymm pop=(chelpg) scfcyc=
 300
 ----------------------------------------------------------------------

 -----------------
 f_xanthene_chelpg
 -----------------
 Symbolic Z-matrix:
 Charge =  0 Multiplicity = 1

                          Input orientation:
 ---------------------------------------------------------------------
 Center     Atomic      Atomic             Coordinates (Angstroms)
 Number     Number       Type             X           Y           Z
 ---------------------------------------------------------------------
      1          6           0       -2.091144    1.427817    1.029402
      2          6           0       -0.724353    1.268210    1.297072
      3          6           0        0.188850    2.256336    0.973111
      4          6           0       -0.255576    3.439134    0.391138
      5          6           0       -1.602867    3.654181    0.120898
      6          6           0       -2.496254    2.625483    0.425146
      7          1           0       -0.382993    0.349196    1.759505
      8          1           0        1.243649    2.116050    1.176474
      9          1           0        0.468636    4.209144    0.154953
     10          6           0       -2.176288    4.965778   -0.403578
     11          8           0       -3.819856    2.769053    0.137311
     12          6           0       -1.119468    5.815697   -1.111418
     13          1           0       -1.551666    6.758128   -1.452585
     14          1           0       -0.312438    6.077575   -0.424125
     15          1           0       -0.691722    5.296058   -1.972506
     16          6           0       -2.728963    5.764589    0.801148
     17          1           0       -1.919541    6.005136    1.496304
     18          1           0       -3.183877    6.696500    0.454432
     19          1           0       -3.487670    5.194289    1.341943
     20          6           0       -3.344822    4.614758   -1.319473
     21          6           0       -4.152208    3.547033   -0.949890
     22          6           0       -3.672500    5.324137   -2.475218
     23          6           0       -5.312358    3.183221   -1.658576
     24          6           0       -4.792756    4.974398   -3.210655
     25          1           0       -3.055704    6.150485   -2.803170
     26          6           0       -5.611006    3.928087   -2.801768
     27          1           0       -5.044554    5.528931   -4.107537
     28          1           0       -6.490042    3.686103   -3.384686
     29          5           0       -3.054900    0.284303    1.415405
     30          7           0       -6.079183    2.083104   -1.239316
     31          6           0       -6.681556    2.197570    0.084851
     32          1           0       -7.524135    2.907923    0.082652
     33          1           0       -7.053499    1.218144    0.392265
     34          1           0       -5.944054    2.518153    0.815692
     35          6           0       -7.009018    1.536348   -2.207495
     36          1           0       -7.373628    0.577843   -1.832200
     37          1           0       -7.884768    2.183045   -2.385365
     38          1           0       -6.505007    1.359159   -3.159284
     39          9           0       -4.378593    0.345137    1.366719
     40          9           0       -2.559261   -0.871993    1.869909
 ---------------------------------------------------------------------

 SCF Done:  E(RwB97XD) =  -1013.24312794     A.U. after   16 cycles

 Alpha  occ. eigenvalues --  -24.81710 -24.81649 -19.30113 -14.44086 -10.36779
 Alpha  occ. eigenvalues --  -10.34988 -10.32885 -10.32274 -10.30740 -10.30565
 Alpha  occ. eigenvalues --  -10.30448 -10.30333 -10.30161 -10.29663 -10.29413
 Alpha  occ. eigenvalues --  -10.29055 -10.28782 -10.28621 -10.28609 -10.28071
 Alpha  occ. eigenvalues --  -10.27903  -6.95728  -1.33990  -1.30843  -1.20737
 Alpha  occ. eigenvalues --   -1.04638  -0.98144  -0.96863  -0.92575  -0.87708
 Alpha  occ. eigenvalues --   -0.85928  -0.84364  -0.83148  -0.80914  -0.79584
 Alpha  occ. eigenvalues --   -0.75906  -0.74575  -0.73535  -0.70544  -0.67668
 Alpha  occ. eigenvalues --   -0.66754  -0.65346  -0.65141  -0.62282  -0.60870
 Alpha  occ. eigenvalues --   -0.59074  -0.58203  -0.58126  -0.57079  -0.56897
 Alpha  occ. eigenvalues --   -0.56163  -0.55273  -0.54665  -0.53977  -0.53539
 Alpha  occ. eigenvalues --   -0.52386  -0.51622  -0.50472  -0.50294  -0.49687
 Alpha  occ. eigenvalues --   -0.48676  -0.48276  -0.47996  -0.47608  -0.47152
 Alpha  occ. eigenvalues --   -0.46155  -0.45831  -0.45380  -0.44763  -0.44410
 Alpha  occ. eigenvalues --   -0.44251  -0.43013  -0.41524  -0.39855  -0.35866
 Alpha  occ. eigenvalues --   -0.34772  -0.33373  -0.30837  -0.27768
 Alpha virt. eigenvalues --    0.00898   0.03788   0.04420   0.04790   0.04852
 Alpha virt. eigenvalues --    0.05304   0.05703   0.05983   0.06280   0.06747
 Alpha virt. eigenvalues --    0.06814   0.06925   0.07518   0.07773   0.08302

 Mulliken charges:
               1
     1  C   -0.387783
     2  C   -0.133992
     3  C   -0.685807
     4  C   -0.224691
     5  C    0.397684
     6  C    0.119534
     7  H    0.232157
     8  H    0.242772
     9  H    0.178736
    10  C   -0.172062
    11  O   -0.059976
    12  C   -0.427083
    13  H    0.172808
    14  H    0.167117
    15  H    0.199127
    16  C   -0.781343
    17  H    0.182074
    18  H    0.188533
    19  H    0.189358
    20  C    0.622487
    21  C   -0.095553
    22  C   -0.321125
    23  C   -0.260058
    24  C   -0.562218
    25  H    0.154081
    26  C   -0.085636
    27  H    0.248736
    28  H    0.183133
    29  B    0.334582
    30  N    0.178144
    31  C   -0.449302
    32  H    0.172471
    33  H    0.183266
    34  H    0.171452
    35  C   -0.334133
    36  H    0.181196
    37  H    0.146846
    38  H    0.165671
    39  F   -0.002024
    40  F   -0.029179
 Sum of Mulliken charges =  -0.00000

 Dipole moment (field-independent basis, Debye):
    X=              0.9921    Y=              2.7547    Z=             -1.0277  Tot=              3.1031
 Quadrupole moment (field-independent basis, Debye-Ang):
   XX=           -120.5420   YY=           -114.0413   ZZ=           -126.5537
   XY=             -1.1685   XZ=              8.8671   YZ=             -2.0082

 ESP charges:
               1
     1  C   -0.407867
     2  C   -0.012820
     3  C   -0.201984
     4  C   -0.017178
     5  C   -0.194426
     6  C    0.387667
     7  H    0.101695
     8  H    0.121114
     9  H    0.102375
    10  C    0.389785
    11  O   -0.315133
    12  C   -0.276203
    13  H    0.081362
    14  H    0.086504
    15  H    0.031910
    16  C   -0.208843
    17  H    0.034298
    18  H    0.037857
    19  H    0.061019
    20  C   -0.044404
    21  C    0.044556
    22  C   -0.192056
    23  C    0.315375
    24  C   -0.159135
    25  H    0.133451
    26  C   -0.218798
    27  H    0.123302
    28  H    0.143057
    29  B    0.857484
    30  N   -0.370563
    31  C    0.026939
    32  H    0.001984
    33  H    0.071900
    34  H    0.060821
    35  C   -0.119391
    36  H    0.100662
    37  H    0.064967
    38  H    0.061944
    39  F   -0.345271
    40  F   -0.357954
 Sum of ESP charges =   0.00000

 Normal termination of Gaussian 16 at Wed Apr 10 16:31:55 2024.
