 Gaussian 16, Revision C.02,
 Gaussian 16:  AS64L-G16RevC.02  7-Dec-2021

 ----------------------------------------------------------------------
 # wb97xd/genecp scrf=(solvent=toluene,pcm) nosymm pop=(chelpg) scfcyc=
 300
 ----------------------------------------------------------------------

 ------------------------
 h_benzopiperidine_chelpg
 ------------------------
 Symbolic Z-matrix:
 Charge =  0 Multiplicity = 1

                          Input orientation:
 ---------------------------------------------------------------------
 Center     Atomic      Atomic             Coordinates (Angstroms)
 Number     Number       Type             X           Y           Z
 ---------------------------------------------------------------------
      1          6           0       -0.599670    0.929981    0.678852
      2          6           0        0.771699    1.078270    0.812265
      3          6           0        1.460772    2.204781    0.326931
      4          6           0        0.698960    3.256526   -0.259570
      5          6           0       -0.686382    3.094083   -0.400776
      6          6           0       -1.317916    1.944761    0.055615
      7          1           0       -1.101628    0.043024    1.046779
      8          1           0        1.351038    0.286239    1.276772
      9          1           0       -1.287199    3.878894   -0.841765
     10          1           0       -2.393409    1.855194   -0.058443
     11          5           0        2.991347    2.119285    0.267550
     12          6           0        0.635778    5.294268   -1.622287
     13          6           0        2.102094    5.180010    0.300291
     14          6           0        1.626324    6.197178   -2.354900
     15          6           0        3.145027    6.064571   -0.367515
     16          6           0        2.481061    6.999982   -1.376612
     17          1           0        1.072625    6.863773   -3.022533
     18          1           0        2.272419    5.570053   -2.978718
     19          1           0        3.677221    6.635787    0.398694
     20          1           0        3.876173    5.425119   -0.873764
     21          1           0        3.232144    7.584530   -1.914822
     22          1           0        1.844025    7.714871   -0.840101
     23          7           0        1.338993    4.419651   -0.693825
     24          1           0        2.572733    4.491685    0.999395
     25          1           0        1.407731    5.811310    0.884352
     26          1           0       -0.110201    5.917492   -1.096121
     27          1           0        0.101472    4.679062   -2.348297
     28          1           0        3.641797    2.858012   -0.410472
     29          1           0        3.547088    1.248716    0.875493
 ---------------------------------------------------------------------

 SCF Done:  E(RwB97XD) =  -508.357922216     A.U. after   16 cycles

 Alpha  occ. eigenvalues --  -14.44252 -10.33509 -10.31213 -10.31164 -10.29903
 Alpha  occ. eigenvalues --  -10.29513 -10.28603 -10.28266 -10.27964 -10.27882
 Alpha  occ. eigenvalues --  -10.27794 -10.26907  -6.84001  -1.05479  -0.95655
 Alpha  occ. eigenvalues --   -0.90472  -0.86419  -0.84797  -0.83726  -0.75297
 Alpha  occ. eigenvalues --   -0.73473  -0.69647  -0.68945  -0.65129  -0.63245
 Alpha  occ. eigenvalues --   -0.58711  -0.56705  -0.56357  -0.54661  -0.54197
 Alpha  occ. eigenvalues --   -0.52405  -0.51590  -0.50703  -0.49776  -0.47758
 Alpha  occ. eigenvalues --   -0.47506  -0.45669  -0.44249  -0.43151  -0.41740
 Alpha  occ. eigenvalues --   -0.41029  -0.40581  -0.40299  -0.39580  -0.35947
 Alpha  occ. eigenvalues --   -0.33956  -0.28161
 Alpha virt. eigenvalues --   -0.00404   0.04111   0.04786   0.05224   0.05405
 Alpha virt. eigenvalues --    0.05941   0.06307   0.06371   0.07460   0.07540
 Alpha virt. eigenvalues --    0.08211   0.08281   0.08627   0.09421   0.09961

 Mulliken charges:
               1
     1  C   -0.548372
     2  C   -0.042355
     3  C    0.763650
     4  C   -1.312393
     5  C    0.332091
     6  C   -0.314305
     7  H    0.207254
     8  H    0.251636
     9  H    0.191209
    10  H    0.240874
    11  B   -0.158475
    12  C   -0.172443
    13  C   -0.534621
    14  C   -0.456184
    15  C   -0.235671
    16  C   -0.377071
    17  H    0.194769
    18  H    0.173864
    19  H    0.189010
    20  H    0.145014
    21  H    0.205941
    22  H    0.149397
    23  N    0.493989
    24  H    0.106875
    25  H    0.192589
    26  H    0.169780
    27  H    0.169013
    28  H   -0.021500
    29  H   -0.003565
 Sum of Mulliken charges =  -0.00000

 Dipole moment (field-independent basis, Debye):
    X=             -1.3694    Y=              1.9280    Z=             -0.4352  Tot=              2.4046
 Quadrupole moment (field-independent basis, Debye-Ang):
   XX=            -81.4610   YY=            -61.8457   ZZ=            -80.5018
   XY=              1.0245   XZ=              1.1356   YZ=             -4.7291

 ESP charges:
               1
     1  C   -0.185014
     2  C   -0.031499
     3  C   -0.337763
     4  C    0.444073
     5  C   -0.238662
     6  C   -0.046555
     7  H    0.110493
     8  H    0.092197
     9  H    0.108434
    10  H    0.106921
    11  B    0.526196
    12  C    0.196269
    13  C    0.294943
    14  C   -0.081312
    15  C   -0.074801
    16  C    0.050645
    17  H    0.012111
    18  H    0.040837
    19  H    0.003855
    20  H    0.059806
    21  H   -0.004084
    22  H    0.002630
    23  N   -0.580934
    24  H   -0.025451
    25  H   -0.038379
    26  H    0.011412
    27  H    0.013700
    28  H   -0.222191
    29  H   -0.207876
 Sum of ESP charges =  -0.00000

 Normal termination of Gaussian 16 at Wed Apr 10 15:57:47 2024.
