 Gaussian 16, Revision C.02,
 Gaussian 16:  AS64L-G16RevC.02  7-Dec-2021

 ----------------------------------------------------------------------
 # wb97xd/genecp scrf=(solvent=toluene,pcm) nosymm pop=(chelpg) scfcyc=
 300
 ----------------------------------------------------------------------

 ------------------------
 h_dimethylaniline_chelpg
 ------------------------
 Symbolic Z-matrix:
 Charge =  0 Multiplicity = 1

                          Input orientation:
 ---------------------------------------------------------------------
 Center     Atomic      Atomic             Coordinates (Angstroms)
 Number     Number       Type             X           Y           Z
 ---------------------------------------------------------------------
      1          6           0       -0.637262    0.890170    0.772636
      2          6           0        0.727627    1.070885    0.902870
      3          6           0        1.392812    2.224117    0.437482
      4          6           0        0.600017    3.281167   -0.105283
      5          6           0       -0.783778    3.073788   -0.264965
      6          6           0       -1.380063    1.899670    0.163456
      7          1           0       -1.116525   -0.016234    1.122346
      8          1           0        1.330402    0.282147    1.342457
      9          1           0       -1.408450    3.847760   -0.690730
     10          1           0       -2.452039    1.782770    0.040634
     11          7           0        1.172584    4.480654   -0.480155
     12          5           0        2.913284    2.124731    0.305952
     13          6           0        2.194595    5.117184    0.337945
     14          1           0        2.472790    4.474241    1.171314
     15          1           0        3.094151    5.338886   -0.242918
     16          1           0        1.805126    6.056963    0.751326
     17          6           0        0.411897    5.421645   -1.276444
     18          1           0       -0.079731    4.914508   -2.107858
     19          1           0       -0.345921    5.962337   -0.689095
     20          1           0        1.101286    6.156538   -1.696282
     21          1           0        3.486817    1.234373    0.867346
     22          1           0        3.543289    2.858670   -0.396323
 ---------------------------------------------------------------------

 SCF Done:  E(RwB97XD) =  -391.618048364     A.U. after   16 cycles

 Alpha  occ. eigenvalues --  -14.45479 -10.33924 -10.31264 -10.31170 -10.29805
 Alpha  occ. eigenvalues --  -10.29392 -10.28434 -10.27892 -10.26752  -6.83700
 Alpha  occ. eigenvalues --   -1.05827  -0.95215  -0.85333  -0.85187  -0.81937
 Alpha  occ. eigenvalues --   -0.76144  -0.70203  -0.67530  -0.62945  -0.58090
 Alpha  occ. eigenvalues --   -0.57221  -0.56262  -0.55206  -0.52844  -0.51285
 Alpha  occ. eigenvalues --   -0.49293  -0.48211  -0.47454  -0.46583  -0.45939
 Alpha  occ. eigenvalues --   -0.43853  -0.40397  -0.40053  -0.37143  -0.33885
 Alpha  occ. eigenvalues --   -0.27685
 Alpha virt. eigenvalues --   -0.00025   0.03943   0.04969   0.05423   0.06010
 Alpha virt. eigenvalues --    0.06240   0.06846   0.06959   0.08062   0.08368
 Alpha virt. eigenvalues --    0.08992   0.09364   0.09839   0.10695   0.11832

 Mulliken charges:
               1
     1  C   -0.527167
     2  C   -0.170397
     3  C    0.567246
     4  C   -0.784869
     5  C    0.184450
     6  C   -0.325294
     7  H    0.203672
     8  H    0.250478
     9  H    0.176254
    10  H    0.231066
    11  N    0.266375
    12  B   -0.174777
    13  C   -0.475836
    14  H    0.137316
    15  H    0.214658
    16  H    0.153607
    17  C   -0.445964
    18  H    0.161717
    19  H    0.190015
    20  H    0.184045
    21  H    0.002274
    22  H   -0.018869
 Sum of Mulliken charges =  -0.00000

 Dipole moment (field-independent basis, Debye):
    X=             -1.4038    Y=              2.3227    Z=             -0.3925  Tot=              2.7422
 Quadrupole moment (field-independent basis, Debye-Ang):
   XX=            -63.5652   YY=            -41.3213   ZZ=            -63.2588
   XY=              0.5944   XZ=              1.4295   YZ=             -3.9625

 ESP charges:
               1
     1  C   -0.193042
     2  C   -0.021400
     3  C   -0.310175
     4  C    0.373246
     5  C   -0.246471
     6  C   -0.035984
     7  H    0.106269
     8  H    0.086295
     9  H    0.117877
    10  H    0.100533
    11  N   -0.319824
    12  B    0.441720
    13  C    0.044006
    14  H    0.026957
    15  H    0.066504
    16  H    0.025004
    17  C   -0.077745
    18  H    0.055530
    19  H    0.067619
    20  H    0.082957
    21  H   -0.185467
    22  H   -0.204411
 Sum of ESP charges =  -0.00000

 Normal termination of Gaussian 16 at Tue Apr  9 16:12:24 2024.
