 Gaussian 16, Revision C.02,
 Gaussian 16:  AS64L-G16RevC.02  7-Dec-2021

 ----------------------------------------------------------------------
 # wb97xd/genecp scrf=(solvent=toluene,pcm) nosymm pop=(chelpg) scfcyc=
 300
 ----------------------------------------------------------------------

 --------------------------
 h_dimethylimidazole_chelpg
 --------------------------
 Symbolic Z-matrix:
 Charge =  0 Multiplicity = 1

                          Input orientation:
 ---------------------------------------------------------------------
 Center     Atomic      Atomic             Coordinates (Angstroms)
 Number     Number       Type             X           Y           Z
 ---------------------------------------------------------------------
      1          6           0        2.729324    1.630026    1.038757
      2          1           0        2.870600    2.221650    1.930475
      3          6           0        3.191935    0.368813    0.706921
      4          7           0        1.997015    2.078569   -0.009850
      5          7           0        2.722121    0.059846   -0.572832
      6          5           0        4.056325   -0.526150    1.573334
      7          6           0        1.311812    3.353148   -0.119524
      8          1           0        1.701686    3.923606   -0.964357
      9          1           0        0.239861    3.198785   -0.254738
     10          1           0        1.473876    3.921186    0.794820
     11          1           0        4.391228   -0.138773    2.657260
     12          1           0        4.405807   -1.603699    1.193251
     13          6           0        2.022474    1.084925   -0.968197
     14          6           0        1.316941    1.227920   -2.271689
     15          1           0        0.240612    1.363455   -2.130900
     16          1           0        1.691732    2.085925   -2.837418
     17          1           0        1.480930    0.325340   -2.857683
 ---------------------------------------------------------------------

 SCF Done:  E(RwB97XD) =  -330.274412503     A.U. after   14 cycles

 Alpha  occ. eigenvalues --  -14.50428 -14.41452 -10.35017 -10.33915 -10.32747
 Alpha  occ. eigenvalues --  -10.29316 -10.27990  -6.83347  -1.13597  -0.99510
 Alpha  occ. eigenvalues --   -0.88841  -0.83407  -0.79200  -0.70701  -0.65249
 Alpha  occ. eigenvalues --   -0.62576  -0.58276  -0.56686  -0.53372  -0.52067
 Alpha  occ. eigenvalues --   -0.51682  -0.49759  -0.48330  -0.48214  -0.42722
 Alpha  occ. eigenvalues --   -0.40654  -0.36368  -0.35687  -0.31604
 Alpha virt. eigenvalues --    0.01523   0.03559   0.05214   0.06021   0.06691
 Alpha virt. eigenvalues --    0.07556   0.07922   0.07986   0.08707   0.09498
 Alpha virt. eigenvalues --    0.10199   0.10641   0.10910   0.11571   0.13123

 Mulliken charges:
               1
     1  C   -0.007718
     2  H    0.261593
     3  C   -0.052041
     4  N    0.051693
     5  N   -0.104107
     6  B   -0.088657
     7  C   -0.391498
     8  H    0.197742
     9  H    0.197471
    10  H    0.175199
    11  H   -0.012536
    12  H   -0.061721
    13  C   -0.018019
    14  C   -0.713681
    15  H    0.178739
    16  H    0.178291
    17  H    0.209250
 Sum of Mulliken charges =  -0.00000

 Dipole moment (field-independent basis, Debye):
    X=             -3.2149    Y=              5.8476    Z=             -0.6546  Tot=              6.7051
 Quadrupole moment (field-independent basis, Debye-Ang):
   XX=            -65.0145   YY=            -35.7296   ZZ=            -47.2449
   XY=             10.6863   XZ=             -0.6682   YZ=             -0.2858

 ESP charges:
               1
     1  C   -0.375177
     2  H    0.204108
     3  C    0.163226
     4  N    0.154035
     5  N   -0.710662
     6  B    0.365323
     7  C   -0.276919
     8  H    0.107658
     9  H    0.108216
    10  H    0.150903
    11  H   -0.198590
    12  H   -0.161324
    13  C    0.496177
    14  C   -0.339879
    15  H    0.095586
    16  H    0.095700
    17  H    0.121619
 Sum of ESP charges =   0.00000

 1\1\GINC-IRENE6147\SP\RwB97XD\GenECP\C5H9B1N2\PENASFRA\08-Apr-2024\0\\
 # wb97xd/genecp scrf=(solvent=toluene,pcm) nosymm pop=(chelpg) scfcyc=
 300\\h_dimethylimidazole_chelpg\\0,1\C,0,2.729324,1.630026,1.038757\H,
 0,2.8706,2.22165,1.930475\C,0,3.191935,0.368813,0.706921\N,0,1.997015,
 2.078569,-0.00985\N,0,2.722121,0.059846,-0.572832\B,0,4.056325,-0.5261
 5,1.573334\C,0,1.311812,3.353148,-0.119524\H,0,1.701686,3.923606,-0.96
 4357\H,0,0.239861,3.198785,-0.254738\H,0,1.473876,3.921186,0.79482\H,0
 ,4.391228,-0.138773,2.65726\H,0,4.405807,-1.603699,1.193251\C,0,2.0224

 Normal termination of Gaussian 16 at Mon Apr  8 17:29:39 2024.
