 Gaussian 16, Revision C.02,
 Gaussian 16:  AS64L-G16RevC.02  7-Dec-2021

 ----------------------------------------------------------------------
 # wb97xd/genecp scrf=(solvent=toluene,pcm) nosymm pop=(chelpg) scfcyc=
 300
 ----------------------------------------------------------------------

 ---------------------
 h_dibenzofuran_chelpg
 ---------------------
 Symbolic Z-matrix:
 Charge =  0 Multiplicity = 1

                          Input orientation:
 ---------------------------------------------------------------------
 Center     Atomic      Atomic             Coordinates (Angstroms)
 Number     Number       Type             X           Y           Z
 ---------------------------------------------------------------------
      1          6           0        2.098202    2.162435    0.190060
      2          6           0        1.909744    2.535057   -1.144476
      3          8           0        1.617597    3.113109    1.034120
      4          6           0        1.257066    3.829993   -1.104848
      5          6           0        1.117407    4.122590    0.249344
      6          6           0        0.768975    4.711360   -2.070608
      7          6           0        0.510008    5.288157    0.738529
      8          6           0        0.153600    5.864935   -1.620623
      9          1           0        0.860901    4.495085   -3.127973
     10          6           0        0.032695    6.150650   -0.254598
     11          1           0       -0.241899    6.578051   -2.335033
     12          1           0       -0.446437    7.076834    0.034163
     13          6           0        2.336990    1.678403   -2.154298
     14          1           0        2.200922    1.943500   -3.197021
     15          6           0        2.941886    0.476251   -1.802804
     16          1           0        3.279885   -0.201485   -2.577736
     17          6           0        3.116338    0.136354   -0.462129
     18          6           0        2.701963    0.966784    0.596098
     19          1           0        3.592014   -0.806867   -0.214150
     20          5           0        2.914529    0.567746    2.064581
     21          7           0        0.357769    5.516393    2.109648
     22          6           0        1.563758    5.423326    2.926406
     23          1           0        2.224276    6.290725    2.772634
     24          1           0        1.275855    5.390594    3.979110
     25          1           0        2.115762    4.514596    2.699022
     26          6           0       -0.486400    6.629538    2.495735
     27          1           0       -0.655492    6.577546    3.572736
     28          1           0       -0.038390    7.610706    2.268463
     29          1           0       -1.455414    6.561955    1.998029
     30          1           0        2.573018    1.281674    2.958018
     31          1           0        3.437358   -0.480359    2.308291
 ---------------------------------------------------------------------

 SCF Done:  E(RwB97XD) =  -696.668724354     A.U. after   16 cycles

 Alpha  occ. eigenvalues --  -19.31856 -14.45000 -10.36091 -10.35018 -10.33746
 Alpha  occ. eigenvalues --  -10.31186 -10.30831 -10.30614 -10.30579 -10.30407
 Alpha  occ. eigenvalues --  -10.30385 -10.29565 -10.29197 -10.29127 -10.29017
 Alpha  occ. eigenvalues --  -10.28402  -6.85127  -1.22785  -1.05394  -0.97714
 Alpha  occ. eigenvalues --   -0.96230  -0.89442  -0.87207  -0.84669  -0.83812
 Alpha  occ. eigenvalues --   -0.81398  -0.76663  -0.74002  -0.72407  -0.69950
 Alpha  occ. eigenvalues --   -0.67162  -0.63164  -0.62239  -0.60261  -0.58558
 Alpha  occ. eigenvalues --   -0.57285  -0.57047  -0.55384  -0.55132  -0.54809
 Alpha  occ. eigenvalues --   -0.53218  -0.51339  -0.50331  -0.48749  -0.48418
 Alpha  occ. eigenvalues --   -0.47669  -0.46593  -0.46380  -0.45662  -0.45310
 Alpha  occ. eigenvalues --   -0.44951  -0.43652  -0.41524  -0.40910  -0.38785
 Alpha  occ. eigenvalues --   -0.36253  -0.32833  -0.30629  -0.27914
 Alpha virt. eigenvalues --   -0.01675   0.03169   0.03953   0.04496   0.05026
 Alpha virt. eigenvalues --    0.05835   0.06073   0.06214   0.06922   0.07189
 Alpha virt. eigenvalues --    0.07479   0.07736   0.08016   0.08516   0.09297

 Mulliken charges:
               1
     1  C   -1.368357
     2  C    1.236979
     3  O    0.028340
     4  C    1.371578
     5  C   -1.243702
     6  C   -0.374744
     7  C   -0.429873
     8  C   -0.378006
     9  H    0.174547
    10  C    0.415365
    11  H    0.237321
    12  H    0.195670
    13  C   -0.272655
    14  H    0.197484
    15  C   -0.290852
    16  H    0.235186
    17  C   -0.209993
    18  C    0.152779
    19  H    0.255521
    20  B   -0.180607
    21  N    0.085846
    22  C   -0.455124
    23  H    0.172395
    24  H    0.167193
    25  H    0.153270
    26  C   -0.380683
    27  H    0.182996
    28  H    0.162006
    29  H    0.165291
    30  H   -0.024919
    31  H    0.019750
 Sum of Mulliken charges =  -0.00000

 Dipole moment (field-independent basis, Debye):
    X=             -0.1759    Y=              1.5565    Z=             -1.0593  Tot=              1.8909
 Quadrupole moment (field-independent basis, Debye-Ang):
   XX=           -102.1764   YY=            -81.1759   ZZ=            -91.3882
   XY=             -4.9834   XZ=             -3.9347   YZ=              5.5629

 ESP charges:
               1
     1  C    0.290897
     2  C    0.003732
     3  O   -0.269811
     4  C    0.046997
     5  C    0.014284
     6  C   -0.224507
     7  C    0.363448
     8  C   -0.117778
     9  H    0.140187
    10  C   -0.270942
    11  H    0.114862
    12  H    0.153148
    13  C   -0.132221
    14  H    0.135810
    15  C   -0.119574
    16  H    0.102519
    17  C   -0.107594
    18  C   -0.248662
    19  H    0.119259
    20  B    0.514849
    21  N   -0.418273
    22  C    0.087777
    23  H   -0.004043
    24  H    0.050956
    25  H    0.042815
    26  C   -0.030019
    27  H    0.079233
    28  H    0.044007
    29  H    0.043835
    30  H   -0.197462
    31  H   -0.207726
 Sum of ESP charges =   0.00000

 Normal termination of Gaussian 16 at Wed Apr 10 16:16:42 2024.
