 Gaussian 16, Revision C.02,
 Gaussian 16:  AS64L-G16RevC.02  7-Dec-2021

 ----------------------------------------------------------------------
 # wb97xd/genecp scrf=(solvent=toluene,pcm) nosymm pop=(chelpg) scfcyc=
 300
 ----------------------------------------------------------------------

 ---------------
 h_indole_chelpg
 ---------------
 Symbolic Z-matrix:
 Charge =  0 Multiplicity = 1

                          Input orientation:
 ---------------------------------------------------------------------
 Center     Atomic      Atomic             Coordinates (Angstroms)
 Number     Number       Type             X           Y           Z
 ---------------------------------------------------------------------
      1          6           0       -1.116181   -1.239600   -0.195184
      2          6           0       -2.502147   -1.272070   -0.099667
      3          6           0       -1.837894    0.892120   -0.145232
      4          6           0       -1.940248    2.293965   -0.137686
      5          6           0       -3.195891    2.858399   -0.050360
      6          6           0       -4.345648    2.026387    0.029069
      7          6           0       -4.252652    0.656247    0.021926
      8          6           0       -2.979594    0.060141   -0.066534
      9          1           0       -1.056456    2.919948   -0.198644
     10          1           0       -5.320695    2.498329    0.097093
     11          1           0       -5.143573    0.040749    0.083346
     12          7           0       -0.730484    0.106107   -0.221718
     13          1           0       -3.088860   -2.178143   -0.059501
     14          5           0       -0.211464   -2.453956   -0.257530
     15          6           0        0.617461    0.623993   -0.313260
     16          1           0        0.855154    1.231864    0.563868
     17          1           0        1.317776   -0.205958   -0.363521
     18          1           0        0.732662    1.236018   -1.211819
     19          6           0       -3.374633    4.353522   -0.037982
     20          1           0       -3.880900    4.677152    0.876104
     21          1           0       -2.415883    4.871849   -0.096847
     22          1           0       -3.989394    4.678483   -0.882486
     23          1           0        0.979026   -2.378052   -0.339609
     24          1           0       -0.726068   -3.531730   -0.221999
 ---------------------------------------------------------------------

 SCF Done:  E(RwB97XD) =  -467.849669389     A.U. after   16 cycles

 Alpha  occ. eigenvalues --  -14.48250 -10.32424 -10.32153 -10.30430 -10.29836
 Alpha  occ. eigenvalues --  -10.29440 -10.28978 -10.28904 -10.28707 -10.28352
 Alpha  occ. eigenvalues --  -10.28089  -6.84340  -1.09585  -0.96021  -0.91265
 Alpha  occ. eigenvalues --   -0.85709  -0.85217  -0.79227  -0.77956  -0.71198
 Alpha  occ. eigenvalues --   -0.68345  -0.66261  -0.62028  -0.58392  -0.57390
 Alpha  occ. eigenvalues --   -0.56009  -0.54451  -0.53346  -0.51484  -0.51118
 Alpha  occ. eigenvalues --   -0.49632  -0.48190  -0.48086  -0.46689  -0.44694
 Alpha  occ. eigenvalues --   -0.43231  -0.42349  -0.41420  -0.41044  -0.36612
 Alpha  occ. eigenvalues --   -0.30287  -0.28778
 Alpha virt. eigenvalues --   -0.01145   0.03955   0.04884   0.05105   0.06233
 Alpha virt. eigenvalues --    0.06575   0.06673   0.06718   0.07757   0.08060
 Alpha virt. eigenvalues --    0.08689   0.08895   0.09007   0.09591   0.10531

 Mulliken charges:
               1
     1  C    0.038439
     2  C    0.094819
     3  C   -0.466421
     4  C   -0.807731
     5  C    0.607236
     6  C   -0.566924
     7  C   -0.343066
     8  C    0.389254
     9  H    0.183075
    10  H    0.203178
    11  H    0.218275
    12  N    0.246305
    13  H    0.265230
    14  B   -0.126185
    15  C   -0.451016
    16  H    0.196962
    17  H    0.109819
    18  H    0.196320
    19  C   -0.505475
    20  H    0.184286
    21  H    0.175031
    22  H    0.185564
    23  H   -0.031992
    24  H    0.005016
 Sum of Mulliken charges =  -0.00000

 Dipole moment (field-independent basis, Debye):
    X=              0.5795    Y=              2.4213    Z=             -0.0402  Tot=              2.4900
 Quadrupole moment (field-independent basis, Debye-Ang):
   XX=            -66.4443   YY=            -68.6549   ZZ=            -76.0678
   XY=             -1.1019   XZ=             -0.8240   YZ=             -0.5813

 ESP charges:
               1
     1  C   -0.134215
     2  C   -0.344261
     3  C    0.179251
     4  C   -0.363581
     5  C    0.210382
     6  C   -0.228422
     7  C   -0.220818
     8  C    0.164245
     9  H    0.175682
    10  H    0.132027
    11  H    0.145160
    12  N   -0.067215
    13  H    0.183147
    14  B    0.434679
    15  C   -0.108123
    16  H    0.065613
    17  H    0.106464
    18  H    0.066365
    19  C   -0.238705
    20  H    0.072667
    21  H    0.071037
    22  H    0.072414
    23  H   -0.182398
    24  H   -0.191395
 Sum of ESP charges =  -0.00000

 Normal termination of Gaussian 16 at Wed Apr 10 15:49:27 2024.
