 Gaussian 16, Revision C.02,
 Gaussian 16:  AS64L-G16RevC.02  7-Dec-2021

 ----------------------------------------------------------------------
 # wb97xd/genecp scrf=(solvent=toluene,pcm) nosymm pop=(chelpg) scfcyc=
 300
 ----------------------------------------------------------------------

 ------------------------------
 h_meimidazolecarboxylic_chelpg
 ------------------------------
 Symbolic Z-matrix:
 Charge =  0 Multiplicity = 1

                          Input orientation:
 ---------------------------------------------------------------------
 Center     Atomic      Atomic             Coordinates (Angstroms)
 Number     Number       Type             X           Y           Z
 ---------------------------------------------------------------------
      1          6           0        2.659396    1.538102    1.069127
      2          1           0        2.743376    2.173985    1.936793
      3          6           0        3.102507    0.246679    0.847449
      4          7           0        2.033725    1.954852   -0.062510
      5          7           0        2.739486   -0.124262   -0.453500
      6          5           0        3.854183   -0.629759    1.834513
      7          6           0        1.441443    3.255016   -0.328336
      8          1           0        0.467970    3.126088   -0.801561
      9          1           0        1.308604    3.775665    0.618019
     10          1           0        2.092834    3.840720   -0.978365
     11          1           0        4.103713   -0.191124    2.920333
     12          1           0        4.192610   -1.735995    1.540568
     13          6           0        2.131270    0.903193   -0.932031
     14          8           0        1.542260    0.962563   -2.165359
     15          6           0        2.201582    1.635526   -3.141936
     16          8           0        3.208347    2.252460   -2.986233
     17          1           0        1.647796    1.524046   -4.079485
 ---------------------------------------------------------------------

 SCF Done:  E(RwB97XD) =  -479.502488670     A.U. after   15 cycles

 Alpha  occ. eigenvalues --  -19.33937 -19.27698 -14.52119 -14.43316 -10.44920
 Alpha  occ. eigenvalues --  -10.41480 -10.34509 -10.33984 -10.29469  -6.84210
 Alpha  occ. eigenvalues --   -1.26540  -1.18054  -1.14184  -1.01708  -0.88206
 Alpha  occ. eigenvalues --   -0.84342  -0.78625  -0.73082  -0.66460  -0.65559
 Alpha  occ. eigenvalues --   -0.63229  -0.59331  -0.58837  -0.58138  -0.56369
 Alpha  occ. eigenvalues --   -0.53687  -0.52530  -0.51477  -0.49733  -0.45210
 Alpha  occ. eigenvalues --   -0.43562  -0.41499  -0.40744  -0.37923  -0.37831
 Alpha  occ. eigenvalues --   -0.33093
 Alpha virt. eigenvalues --    0.00747   0.03721   0.04076   0.05085   0.06035
 Alpha virt. eigenvalues --    0.06589   0.07100   0.08179   0.08605   0.08902
 Alpha virt. eigenvalues --    0.09374   0.10359   0.11298   0.11592   0.11819

 Mulliken charges:
               1
     1  C   -0.097780
     2  H    0.268211
     3  C   -0.101366
     4  N    0.040635
     5  N   -0.125125
     6  B   -0.084081
     7  C   -0.418847
     8  H    0.220133
     9  H    0.176303
    10  H    0.222480
    11  H   -0.002860
    12  H   -0.059288
    13  C   -0.016726
    14  O   -0.042485
    15  C    0.061547
    16  O   -0.248479
    17  H    0.207726
 Sum of Mulliken charges =  -0.00000

 Dipole moment (field-independent basis, Debye):
    X=             -3.6714    Y=              4.9433    Z=             -0.1872  Tot=              6.1604
 Quadrupole moment (field-independent basis, Debye-Ang):
   XX=            -78.3944   YY=            -48.7525   ZZ=            -53.3106
   XY=              4.7654   XZ=              4.8286   YZ=              2.5852

 ESP charges:
               1
     1  C   -0.367015
     2  H    0.225891
     3  C    0.106342
     4  N    0.070901
     5  N   -0.673269
     6  B    0.425426
     7  C   -0.197303
     8  H    0.081687
     9  H    0.135568
    10  H    0.121222
    11  H   -0.207614
    12  H   -0.168240
    13  C    0.761572
    14  O   -0.527467
    15  C    0.757849
    16  O   -0.566373
    17  H    0.020822
 Sum of ESP charges =  -0.00000

 Normal termination of Gaussian 16 at Wed Apr 10 15:30:32 2024.
