 Gaussian 16, Revision C.02,
 Gaussian 16:  AS64L-G16RevC.02  7-Dec-2021

 ----------------------------------------------------------------------
 # wb97xd/genecp scrf=(solvent=toluene,pcm) nosymm pop=(chelpg) scfcyc=
 300
 ----------------------------------------------------------------------

 -------------------------
 h_menitroimidazole_chelpg
 -------------------------
 Symbolic Z-matrix:
 Charge =  0 Multiplicity = 1

                          Input orientation:
 ---------------------------------------------------------------------
 Center     Atomic      Atomic             Coordinates (Angstroms)
 Number     Number       Type             X           Y           Z
 ---------------------------------------------------------------------
      1          6           0        2.701668    1.652243    1.017290
      2          1           0        2.826625    2.231331    1.919438
      3          6           0        3.180121    0.392476    0.679315
      4          7           0        1.983155    2.124929   -0.024959
      5          7           0        2.740982    0.096945   -0.598012
      6          5           0        4.040785   -0.530034    1.541112
      7          6           0        1.313804    3.424996   -0.057357
      8          1           0        1.698742    4.025160   -0.878603
      9          1           0        0.241521    3.292599   -0.182382
     10          1           0        1.519038    3.918289    0.890799
     11          1           0        4.359548   -0.165467    2.634168
     12          1           0        4.386812   -1.592999    1.129035
     13          6           0        2.051152    1.127454   -0.968002
     14          7           0        1.406111    1.221281   -2.264396
     15          8           0        0.764495    2.235152   -2.494255
     16          8           0        1.545450    0.294874   -3.026765
 ---------------------------------------------------------------------

 SCF Done:  E(RwB97XD) =  -495.439605979     A.U. after   16 cycles

 Alpha  occ. eigenvalues --  -19.30411 -19.30240 -14.70542 -14.54599 -14.46060
 Alpha  occ. eigenvalues --  -10.41434 -10.35929 -10.35030 -10.31442  -6.85807
 Alpha  occ. eigenvalues --   -1.37373  -1.19385  -1.17669  -1.03736  -0.93450
 Alpha  occ. eigenvalues --   -0.86363  -0.81328  -0.74232  -0.69402  -0.66681
 Alpha  occ. eigenvalues --   -0.66598  -0.62848  -0.61512  -0.59289  -0.58739
 Alpha  occ. eigenvalues --   -0.55503  -0.52647  -0.51975  -0.46159  -0.43070
 Alpha  occ. eigenvalues --   -0.42116  -0.42066  -0.41171  -0.39953  -0.39227
 Alpha  occ. eigenvalues --   -0.35588
 Alpha virt. eigenvalues --   -0.04084  -0.00277   0.03541   0.05546   0.06053
 Alpha virt. eigenvalues --    0.06088   0.07853   0.08049   0.08437   0.09945
 Alpha virt. eigenvalues --    0.10270   0.10743   0.11589   0.12662   0.13184

 Mulliken charges:
               1
     1  C    0.029229
     2  H    0.303018
     3  C   -0.074890
     4  N    0.021988
     5  N   -0.027576
     6  B   -0.078768
     7  C   -0.435607
     8  H    0.234792
     9  H    0.236486
    10  H    0.158564
    11  H    0.011494
    12  H   -0.049357
    13  C   -0.052388
    14  N   -0.252084
    15  O   -0.040808
    16  O    0.015905
 Sum of Mulliken charges =  -0.00000

 Dipole moment (field-independent basis, Debye):
    X=             -0.3454    Y=              5.0931    Z=              4.8060  Tot=              7.0112
 Quadrupole moment (field-independent basis, Debye-Ang):
   XX=            -61.1935   YY=            -44.9642   ZZ=            -70.0465
   XY=             12.4652   XZ=              5.7072   YZ=              5.4974

 ESP charges:
               1
     1  C   -0.289032
     2  H    0.201887
     3  C    0.164689
     4  N    0.135020
     5  N   -0.592982
     6  B    0.403758
     7  C   -0.279271
     8  H    0.136269
     9  H    0.136359
    10  H    0.147960
    11  H   -0.189799
    12  H   -0.149908
    13  C    0.355565
    14  N    0.695019
    15  O   -0.456087
    16  O   -0.419448
 Sum of ESP charges =   0.00000

 Normal termination of Gaussian 16 at Tue Apr  9 16:12:53 2024.
