 Gaussian 16, Revision C.02,
 Gaussian 16:  AS64L-G16RevC.02  7-Dec-2021

 ----------------------------------------------------------------------
 # wb97xd/genecp scrf=(solvent=toluene,pcm) nosymm pop=(chelpg) scfcyc=
 300
 ----------------------------------------------------------------------

 ---------------------
 h_meimidazolol_chelpg
 ---------------------
 Symbolic Z-matrix:
 Charge =  0 Multiplicity = 1

                          Input orientation:
 ---------------------------------------------------------------------
 Center     Atomic      Atomic             Coordinates (Angstroms)
 Number     Number       Type             X           Y           Z
 ---------------------------------------------------------------------
      1          6           0        2.738282    1.620327    1.036310
      2          1           0        2.900846    2.215389    1.921565
      3          6           0        3.184582    0.356773    0.702151
      4          7           0        1.983256    2.075737   -0.004006
      5          7           0        2.687114    0.037832   -0.574069
      6          5           0        4.058971   -0.530348    1.564485
      7          6           0        1.294204    3.347458   -0.131716
      8          1           0        1.667065    3.892671   -0.999415
      9          1           0        0.221398    3.185953   -0.242709
     10          1           0        1.478799    3.932623    0.767342
     11          1           0        4.409789   -0.125419    2.636329
     12          1           0        4.399603   -1.614302    1.195166
     13          6           0        1.998997    1.071240   -0.931782
     14          8           0        1.325517    1.254386   -2.072336
     15          1           0        1.438325    0.463003   -2.607937
 ---------------------------------------------------------------------

 SCF Done:  E(RwB97XD) =  -366.187027698     A.U. after   15 cycles

 Alpha  occ. eigenvalues --  -19.30583 -14.50916 -14.41834 -10.40698 -10.33835
 Alpha  occ. eigenvalues --  -10.33239 -10.28731  -6.83551  -1.21574  -1.12790
 Alpha  occ. eigenvalues --   -1.00467  -0.86132  -0.82602  -0.73648  -0.69269
 Alpha  occ. eigenvalues --   -0.64379  -0.59951  -0.59143  -0.57015  -0.54447
 Alpha  occ. eigenvalues --   -0.52060  -0.50885  -0.50278  -0.46126  -0.43293
 Alpha  occ. eigenvalues --   -0.40964  -0.37165  -0.36842  -0.30871
 Alpha virt. eigenvalues --    0.01231   0.03748   0.05211   0.06076   0.06961
 Alpha virt. eigenvalues --    0.07434   0.08272   0.08781   0.08967   0.10611
 Alpha virt. eigenvalues --    0.11455   0.11519   0.12969   0.13318   0.13783

 Mulliken charges:
               1
     1  C   -0.099556
     2  H    0.256795
     3  C   -0.140547
     4  N   -0.036282
     5  N   -0.186320
     6  B   -0.083778
     7  C   -0.405130
     8  H    0.212791
     9  H    0.213759
    10  H    0.173169
    11  H   -0.007090
    12  H   -0.064054
    13  C    0.113215
    14  O   -0.293091
    15  H    0.346117
 Sum of Mulliken charges =  -0.00000

 Dipole moment (field-independent basis, Debye):
    X=             -2.4475    Y=              4.4693    Z=             -0.5118  Tot=              5.1212
 Quadrupole moment (field-independent basis, Debye-Ang):
   XX=            -61.4987   YY=            -36.6557   ZZ=            -44.9786
   XY=              9.5459   XZ=             -1.5707   YZ=              3.9534

 ESP charges:
               1
     1  C   -0.433129
     2  H    0.223744
     3  C    0.189768
     4  N    0.176766
     5  N   -0.764857
     6  B    0.351266
     7  C   -0.245044
     8  H    0.110151
     9  H    0.110578
    10  H    0.135441
    11  H   -0.194572
    12  H   -0.154518
    13  C    0.677954
    14  O   -0.648393
    15  H    0.464843
 Sum of ESP charges =  -0.00000

 Normal termination of Gaussian 16 at Tue Apr  9 16:32:29 2024.
