 Gaussian 16, Revision C.02,
 Gaussian 16:  AS64L-G16RevC.02  7-Dec-2021

 ----------------------------------------------------------------------
 # wb97xd/genecp scrf=(solvent=toluene,pcm) nosymm pop=(chelpg) scfcyc=
 300
 ----------------------------------------------------------------------

 -------------------
 h_metriazole_chelpg
 -------------------
 Symbolic Z-matrix:
 Charge =  0 Multiplicity = 1

                          Input orientation:
 ---------------------------------------------------------------------
 Center     Atomic      Atomic             Coordinates (Angstroms)
 Number     Number       Type             X           Y           Z
 ---------------------------------------------------------------------
      1          6           0        2.659078    1.660730    1.146977
      2          1           0        2.717634    2.187850    2.085569
      3          6           0        3.148066    0.424181    0.752243
      4          7           0        2.034419    2.160382    0.077676
      5          7           0        2.113986    1.291993   -0.959894
      6          7           0        2.772019    0.265049   -0.566341
      7          5           0        3.943149   -0.601051    1.553385
      8          6           0        1.338083    3.424230   -0.077821
      9          1           0        0.962088    3.464381   -1.097791
     10          1           0        0.504687    3.480180    0.622442
     11          1           0        2.025110    4.253047    0.092504
     12          1           0        4.218560   -0.365788    2.692593
     13          1           0        4.284468   -1.624729    1.047110
 ---------------------------------------------------------------------

 SCF Done:  E(RwB97XD) =  -306.959992597     A.U. after   15 cycles

 Alpha  occ. eigenvalues --  -14.54170 -14.50400 -14.46786 -10.34853 -10.34276
 Alpha  occ. eigenvalues --  -10.30055  -6.85421  -1.22284  -1.03865  -0.91887
 Alpha  occ. eigenvalues --   -0.84858  -0.74301  -0.69912  -0.64656  -0.60102
 Alpha  occ. eigenvalues --   -0.58783  -0.54909  -0.52002  -0.51945  -0.47283
 Alpha  occ. eigenvalues --   -0.42759  -0.41960  -0.39055  -0.36594  -0.36115
 Alpha virt. eigenvalues --   -0.00110   0.03734   0.04682   0.05816   0.06695
 Alpha virt. eigenvalues --    0.07693   0.08159   0.08518   0.08996   0.09288
 Alpha virt. eigenvalues --    0.11187   0.12382   0.13366   0.13956   0.15287

 Mulliken charges:
               1
     1  C   -0.341267
     2  H    0.268134
     3  C   -0.098757
     4  N    0.233675
     5  N   -0.109538
     6  N   -0.109476
     7  B   -0.022180
     8  C   -0.400891
     9  H    0.205224
    10  H    0.201583
    11  H    0.201682
    12  H    0.006577
    13  H   -0.034766
 Sum of Mulliken charges =  -0.00000

 Dipole moment (field-independent basis, Debye):
    X=             -1.5307    Y=              5.0721    Z=              3.0035  Tot=              6.0902
 Quadrupole moment (field-independent basis, Debye-Ang):
   XX=            -48.8816   YY=            -26.0818   ZZ=            -44.0259
   XY=              9.2144   XZ=              6.4613   YZ=              4.0515

 ESP charges:
               1
     1  C   -0.370997
     2  H    0.185746
     3  C    0.195415
     4  N    0.579650
     5  N   -0.325899
     6  N   -0.348324
     7  B    0.359963
     8  C   -0.290246
     9  H    0.101105
    10  H    0.122419
    11  H    0.122033
    12  H   -0.165025
    13  H   -0.165840
 Sum of ESP charges =  -0.00000

 1\1\GINC-IRENE5695\SP\RwB97XD\GenECP\C3H6B1N3\PENASFRA\09-Apr-2024\0\\
 # wb97xd/genecp scrf=(solvent=toluene,pcm) nosymm pop=(chelpg) scfcyc=
 300\\h_metriazole_chelpg\\0,1\C,0,2.659078,1.66073,1.146977\H,0,2.7176
 34,2.18785,2.085569\C,0,3.148066,0.424181,0.752243\N,0,2.034419,2.1603
 82,0.077676\N,0,2.113986,1.291993,-0.959894\N,0,2.772019,0.265049,-0.5
 66341\B,0,3.943149,-0.601051,1.553385\C,0,1.338083,3.42423,-0.077821\H
 ,0,0.962088,3.464381,-1.097791\H,0,0.504687,3.48018,0.622442\H,0,2.025
 11,4.253047,0.092504\H,0,4.21856,-0.365788,2.692593\H,0,4.284468,-1.62

 Normal termination of Gaussian 16 at Tue Apr  9 15:48:55 2024.
