 Gaussian 16, Revision C.02,
 Gaussian 16:  AS64L-G16RevC.02  7-Dec-2021

 ----------------------------------------------------------------------
 # wb97xd/genecp scrf=(solvent=toluene,pcm) nosymm pop=(chelpg) scfcyc=
 300
 ----------------------------------------------------------------------

 -----------------------
 h_metriazolamine_chelpg
 -----------------------
 Symbolic Z-matrix:
 Charge =  0 Multiplicity = 1

                          Input orientation:
 ---------------------------------------------------------------------
 Center     Atomic      Atomic             Coordinates (Angstroms)
 Number     Number       Type             X           Y           Z
 ---------------------------------------------------------------------
      1          6           0        2.642808    1.730666    1.118438
      2          6           0        3.102491    0.448290    0.774310
      3          7           0        2.034207    2.201663    0.023815
      4          7           0        2.092964    1.267571   -0.986355
      5          7           0        2.718641    0.254819   -0.543636
      6          5           0        3.841657   -0.550936    1.621939
      7          6           0        1.402113    3.484788   -0.179689
      8          1           0        1.078185    3.527740   -1.217337
      9          1           0        0.531932    3.594674    0.471853
     10          1           0        2.113830    4.290289    0.012788
     11          7           0        2.791775    2.460297    2.257357
     12          1           0        2.092367    3.154516    2.469056
     13          1           0        3.117085    1.943557    3.059407
     14          1           0        4.100962   -0.278362    2.761512
     15          1           0        4.167117   -1.608711    1.178093
 ---------------------------------------------------------------------

 SCF Done:  E(RwB97XD) =  -362.327074246     A.U. after   16 cycles

 Alpha  occ. eigenvalues --  -14.52609 -14.49649 -14.47623 -14.46403 -10.38848
 Alpha  occ. eigenvalues --  -10.34239 -10.28752  -6.84083  -1.21441  -1.07167
 Alpha  occ. eigenvalues --   -1.01782  -0.89327  -0.84379  -0.74563  -0.70486
 Alpha  occ. eigenvalues --   -0.64962  -0.62124  -0.60338  -0.59732  -0.55211
 Alpha  occ. eigenvalues --   -0.51968  -0.51815  -0.46958  -0.45730  -0.42160
 Alpha  occ. eigenvalues --   -0.41649  -0.37306  -0.35701  -0.31882
 Alpha virt. eigenvalues --    0.00856   0.03264   0.05378   0.06415   0.06615
 Alpha virt. eigenvalues --    0.07548   0.07947   0.08529   0.09056   0.09566
 Alpha virt. eigenvalues --    0.10727   0.11822   0.12681   0.13283   0.14103

 Mulliken charges:
               1
     1  C   -0.402482
     2  C    0.155780
     3  N    0.177742
     4  N   -0.116540
     5  N   -0.095704
     6  B   -0.051751
     7  C   -0.456377
     8  H    0.209774
     9  H    0.202179
    10  H    0.208101
    11  N   -0.373516
    12  H    0.284442
    13  H    0.298939
    14  H   -0.016778
    15  H   -0.023809
 Sum of Mulliken charges =  -0.00000

 Dipole moment (field-independent basis, Debye):
    X=             -2.1541    Y=              5.9144    Z=              4.2524  Tot=              7.5963
 Quadrupole moment (field-independent basis, Debye-Ang):
   XX=            -59.0484   YY=            -30.3116   ZZ=            -43.6635
   XY=              9.0709   XZ=              8.2599   YZ=              7.7096

 ESP charges:
               1
     1  C    0.177683
     2  C    0.024828
     3  N    0.444623
     4  N   -0.337061
     5  N   -0.319560
     6  B    0.319434
     7  C   -0.299304
     8  H    0.113364
     9  H    0.112308
    10  H    0.140357
    11  N   -0.843819
    12  H    0.380543
    13  H    0.408423
    14  H   -0.163236
    15  H   -0.158582
 Sum of ESP charges =  -0.00000

 1\1\GINC-IRENE4878\SP\RwB97XD\GenECP\C3H7B1N4\PENASFRA\09-Apr-2024\0\\
 # wb97xd/genecp scrf=(solvent=toluene,pcm) nosymm pop=(chelpg) scfcyc=
 300\\h_metriazolamine_chelpg\\0,1\C,0,2.642808,1.730666,1.118438\C,0,3
 .102491,0.44829,0.77431\N,0,2.034207,2.201663,0.023815\N,0,2.092964,1.
 267571,-0.986355\N,0,2.718641,0.254819,-0.543636\B,0,3.841657,-0.55093
 6,1.621939\C,0,1.402113,3.484788,-0.179689\H,0,1.078185,3.52774,-1.217
 337\H,0,0.531932,3.594674,0.471853\H,0,2.11383,4.290289,0.012788\N,0,2
 .791775,2.460297,2.257357\H,0,2.092367,3.154516,2.469056\H,0,3.117085,

 Normal termination of Gaussian 16 at Tue Apr  9 15:56:02 2024.
