 Gaussian 16, Revision C.02,
 Gaussian 16:  AS64L-G16RevC.02  7-Dec-2021

 ----------------------------------------------------------------------
 # wb97xd/genecp scrf=(solvent=toluene,pcm) nosymm pop=(chelpg) scfcyc=
 300
 ----------------------------------------------------------------------

 -----------------------
 h_naphtoxanthene_chelpg
 -----------------------
 Symbolic Z-matrix:
 Charge =  0 Multiplicity = 1

                          Input orientation:
 ---------------------------------------------------------------------
 Center     Atomic      Atomic             Coordinates (Angstroms)
 Number     Number       Type             X           Y           Z
 ---------------------------------------------------------------------
      1          6           0       -2.136640    1.634661    1.208493
      2          6           0       -0.900726    1.826549    1.894061
      3          6           0       -0.100344    2.919502    1.703532
      4          6           0       -0.491593    3.926134    0.787765
      5          6           0       -1.708042    3.777779    0.089792
      6          6           0       -2.508140    2.635712    0.308294
      7          1           0       -0.595194    1.058396    2.596892
      8          1           0        0.833390    3.026836    2.244100
      9          6           0       -2.130172    4.768878   -0.838999
     10          8           0       -3.672318    2.486100   -0.367852
     11          6           0       -3.369438    4.579582   -1.515013
     12          6           0       -4.126044    3.430774   -1.249729
     13          6           0       -3.813759    5.531581   -2.456819
     14          6           0       -5.346352    3.195046   -1.879808
     15          6           0       -5.031653    5.287362   -3.110381
     16          6           0       -5.769044    4.160042   -2.820295
     17          1           0       -5.399768    5.998579   -3.841675
     18          1           0       -6.711971    4.011212   -3.330715
     19          5           0       -2.982804    0.385591    1.473571
     20          7           0       -6.078095    2.027209   -1.605034
     21          6           0       -6.534871    1.869297   -0.227974
     22          1           0       -7.366435    2.553626    0.003944
     23          1           0       -6.880317    0.843181   -0.083793
     24          1           0       -5.720357    2.049454    0.469639
     25          6           0       -7.101843    1.658790   -2.563109
     26          1           0       -7.420401    0.635936   -2.351456
     27          1           0       -7.994680    2.304651   -2.519061
     28          1           0       -6.699111    1.684114   -3.577178
     29          6           0       -2.994334    6.683907   -2.691394
     30          1           0       -3.334412    7.420007   -3.412199
     31          6           0       -1.819103    6.862092   -2.033406
     32          1           0       -1.214348    7.742542   -2.223577
     33          6           0       -1.351324    5.898442   -1.082134
     34          6           0       -0.124784    6.034580   -0.368631
     35          6           0        0.287407    5.093086    0.527425
     36          1           0        0.487880    6.911797   -0.550605
     37          1           0        1.224722    5.219036    1.058345
     38          1           0       -4.023708    0.194998    0.923188
     39          1           0       -2.579408   -0.419108    2.263865
 ---------------------------------------------------------------------

 SCF Done:  E(RwB97XD) =  -926.514094292     A.U. after   17 cycles

 Alpha  occ. eigenvalues --  -19.31728 -14.44517 -10.37874 -10.36289 -10.33354
 Alpha  occ. eigenvalues --  -10.31747 -10.31562 -10.31350 -10.31266 -10.30786
 Alpha  occ. eigenvalues --  -10.30711 -10.30683 -10.30553 -10.30136 -10.29984
 Alpha  occ. eigenvalues --  -10.29979 -10.29882 -10.29809 -10.29737 -10.29420
 Alpha  occ. eigenvalues --  -10.28951 -10.27571  -6.84170  -1.22119  -1.05081
 Alpha  occ. eigenvalues --   -1.00876  -0.98360  -0.94197  -0.92002  -0.90029
 Alpha  occ. eigenvalues --   -0.87836  -0.86243  -0.83722  -0.81709  -0.80930
 Alpha  occ. eigenvalues --   -0.76532  -0.76138  -0.74110  -0.73582  -0.70149
 Alpha  occ. eigenvalues --   -0.66895  -0.66411  -0.64845  -0.62086  -0.61721
 Alpha  occ. eigenvalues --   -0.59755  -0.58195  -0.57801  -0.57129  -0.56061
 Alpha  occ. eigenvalues --   -0.55315  -0.55145  -0.53445  -0.53153  -0.52541
 Alpha  occ. eigenvalues --   -0.51619  -0.50627  -0.49882  -0.48877  -0.48600
 Alpha  occ. eigenvalues --   -0.48309  -0.47689  -0.47088  -0.46134  -0.45817
 Alpha  occ. eigenvalues --   -0.45361  -0.43390  -0.42953  -0.42364  -0.40784
 Alpha  occ. eigenvalues --   -0.40711  -0.39993  -0.38203  -0.35525  -0.34836
 Alpha  occ. eigenvalues --   -0.32204  -0.28939  -0.25868
 Alpha virt. eigenvalues --   -0.01891   0.00828   0.02689   0.03866   0.04189
 Alpha virt. eigenvalues --    0.04467   0.04800   0.05651   0.05799   0.06169
 Alpha virt. eigenvalues --    0.06904   0.07231   0.07361   0.07410   0.08938

 Mulliken charges:
               1
     1  C    0.193111
     2  C   -0.122773
     3  C   -0.216217
     4  C    0.197910
     5  C    0.149887
     6  C   -0.430233
     7  H    0.269104
     8  H    0.182959
     9  C   -0.049777
    10  O    0.058980
    11  C    0.163243
    12  C   -0.382295
    13  C    0.203783
    14  C   -0.636508
    15  C   -0.093844
    16  C    0.203242
    17  H    0.204784
    18  H    0.212885
    19  B   -0.229061
    20  N    0.129109
    21  C   -0.444447
    22  H    0.155614
    23  H    0.183009
    24  H    0.160936
    25  C   -0.354948
    26  H    0.185576
    27  H    0.149979
    28  H    0.169031
    29  C   -0.403468
    30  H    0.188434
    31  C   -0.540141
    32  H    0.191733
    33  C    0.531813
    34  C   -0.293654
    35  C   -0.304253
    36  H    0.202044
    37  H    0.199724
    38  H   -0.000578
    39  H    0.015309
 Sum of Mulliken charges =  -0.00000

 Dipole moment (field-independent basis, Debye):
    X=             -0.5657    Y=              2.2175    Z=             -1.1309  Tot=              2.5527
 Quadrupole moment (field-independent basis, Debye-Ang):
   XX=           -112.0847   YY=           -115.6908   ZZ=           -129.4459
   XY=             -1.2290   XZ=             13.5980   YZ=             -8.3201

 ESP charges:
               1
     1  C   -0.370110
     2  C   -0.024680
     3  C   -0.314521
     4  C    0.230476
     5  C   -0.126026
     6  C    0.451024
     7  H    0.108414
     8  H    0.144244
     9  C    0.035214
    10  O   -0.347738
    11  C   -0.056284
    12  C    0.164032
    13  C    0.147896
    14  C    0.158926
    15  C   -0.323580
    16  C   -0.095419
    17  H    0.156874
    18  H    0.130291
    19  B    0.537541
    20  N   -0.322808
    21  C    0.119645
    22  H   -0.028870
    23  H    0.053671
    24  H    0.027305
    25  C   -0.103650
    26  H    0.082242
    27  H    0.062968
    28  H    0.058950
    29  C   -0.151252
    30  H    0.123519
    31  C   -0.248092
    32  H    0.142187
    33  C    0.137879
    34  C   -0.150425
    35  C   -0.240732
    36  H    0.128627
    37  H    0.141440
    38  H   -0.223921
    39  H   -0.215257
 Sum of ESP charges =  -0.00000

 Normal termination of Gaussian 16 at Wed Apr 10 16:38:17 2024.
