 Gaussian 16, Revision C.02,
 Gaussian 16:  AS64L-G16RevC.02  7-Dec-2021

 ----------------------------------------------------------------------
 # wb97xd/genecp scrf=(solvent=toluene,pcm) nosymm pop=(chelpg) scfcyc=
 300
 ----------------------------------------------------------------------

 ---------------------
 h_nmeimidazole_chelpg
 ---------------------
 Symbolic Z-matrix:
 Charge =  0 Multiplicity = 1

                          Input orientation:
 ---------------------------------------------------------------------
 Center     Atomic      Atomic             Coordinates (Angstroms)
 Number     Number       Type             X           Y           Z
 ---------------------------------------------------------------------
      1          6           0        2.682311    1.641679    1.082596
      2          1           0        2.809351    2.196358    1.999801
      3          6           0        3.124899    0.380012    0.718073
      4          7           0        1.998324    2.147952    0.028423
      5          7           0        2.692048    0.128761   -0.586170
      6          5           0        3.939873   -0.574572    1.574023
      7          6           0        1.328677    3.434851   -0.044376
      8          1           0        1.006695    3.606754   -1.070615
      9          1           0        0.455417    3.448727    0.609485
     10          1           0        2.015462    4.229977    0.246546
     11          1           0        4.251647   -0.241551    2.681943
     12          1           0        4.269718   -1.644206    1.157723
     13          6           0        2.035008    1.188463   -0.952414
     14          1           0        1.556474    1.347002   -1.908997
 ---------------------------------------------------------------------

 SCF Done:  E(RwB97XD) =  -290.952883107     A.U. after   14 cycles

 Alpha  occ. eigenvalues --  -14.50974 -14.42193 -10.34611 -10.34050 -10.33014
 Alpha  occ. eigenvalues --  -10.28554  -6.83790  -1.13971  -0.99931  -0.86639
 Alpha  occ. eigenvalues --   -0.82310  -0.70857  -0.67986  -0.63947  -0.57878
 Alpha  occ. eigenvalues --   -0.56801  -0.53599  -0.52797  -0.50687  -0.49827
 Alpha  occ. eigenvalues --   -0.43220  -0.41039  -0.36777  -0.36281  -0.32773
 Alpha virt. eigenvalues --    0.01081   0.03717   0.05445   0.05878   0.06288
 Alpha virt. eigenvalues --    0.07708   0.08116   0.09149   0.09370   0.09497
 Alpha virt. eigenvalues --    0.10207   0.11388   0.12671   0.12870   0.14196

 Mulliken charges:
               1
     1  C   -0.229637
     2  H    0.233306
     3  C   -0.098702
     4  N    0.032914
     5  N   -0.158455
     6  B   -0.064093
     7  C   -0.391169
     8  H    0.162247
     9  H    0.212940
    10  H    0.195052
    11  H   -0.004757
    12  H   -0.055707
    13  C   -0.061051
    14  H    0.227113
 Sum of Mulliken charges =  -0.00000

 Dipole moment (field-independent basis, Debye):
    X=             -2.7627    Y=              5.9039    Z=              0.1510  Tot=              6.5200
 Quadrupole moment (field-independent basis, Debye-Ang):
   XX=            -56.3048   YY=            -28.2138   ZZ=            -41.8269
   XY=             10.4847   XZ=              1.0932   YZ=              0.1182

 ESP charges:
               1
     1  C   -0.330146
     2  H    0.197165
     3  C    0.156964
     4  N    0.212779
     5  N   -0.637846
     6  B    0.387226
     7  C   -0.341109
     8  H    0.121532
     9  H    0.144580
    10  H    0.148424
    11  H   -0.203509
    12  H   -0.166858
    13  C    0.217356
    14  H    0.093442
 Sum of ESP charges =   0.00000

 1\1\GINC-IRENE5267\SP\RwB97XD\GenECP\C4H7B1N2\PENASFRA\08-Apr-2024\0\\
 # wb97xd/genecp scrf=(solvent=toluene,pcm) nosymm pop=(chelpg) scfcyc=
 300\\h_nmeimidazole_chelpg\\0,1\C,0,2.682311,1.641679,1.082596\H,0,2.8
 09351,2.196358,1.999801\C,0,3.124899,0.380012,0.718073\N,0,1.998324,2.
 147952,0.028423\N,0,2.692048,0.128761,-0.58617\B,0,3.939873,-0.574572,
 1.574023\C,0,1.328677,3.434851,-0.044376\H,0,1.006695,3.606754,-1.0706
 15\H,0,0.455417,3.448727,0.609485\H,0,2.015462,4.229977,0.246546\H,0,4
 .251647,-0.241551,2.681943\H,0,4.269718,-1.644206,1.157723\C,0,2.03500

 Normal termination of Gaussian 16 at Mon Apr  8 17:55:42 2024.
