 Gaussian 16, Revision C.02,
 Gaussian 16:  AS64L-G16RevC.02  7-Dec-2021

 ----------------------------------------------------------------------
 # wb97xd/genecp scrf=(solvent=toluene,pcm) nosymm pop=(chelpg) scfcyc=
 300
 ----------------------------------------------------------------------

 ------------------
 h_quinoline_chelpg
 ------------------
 Symbolic Z-matrix:
 Charge =  0 Multiplicity = 1

                          Input orientation:
 ---------------------------------------------------------------------
 Center     Atomic      Atomic             Coordinates (Angstroms)
 Number     Number       Type             X           Y           Z
 ---------------------------------------------------------------------
      1          6           0       -4.000652    0.051829    0.214610
      2          6           0       -2.627021    0.057731    0.030741
      3          6           0       -1.969639    1.333271   -0.071205
      4          6           0       -2.735846    2.526388    0.018531
      5          6           0       -4.138785    2.447893    0.207417
      6          6           0       -4.762698    1.234710    0.304252
      7          1           0       -4.510048   -0.903264    0.292959
      8          6           0       -2.062920    3.766303   -0.085369
      9          1           0       -4.708346    3.369753    0.273394
     10          1           0       -5.835285    1.178613    0.448566
     11          6           0       -0.709300    3.777053   -0.267642
     12          6           0       -0.035548    2.538169   -0.344682
     13          1           0       -2.630152    4.689248   -0.019010
     14          1           0       -0.152862    4.702246   -0.352684
     15          1           0        1.042156    2.525119   -0.489852
     16          7           0       -0.621800    1.369668   -0.252895
     17          5           0       -1.887154   -1.296043   -0.052039
     18          1           0       -0.709408   -1.378145   -0.200289
     19          1           0       -2.543798   -2.294278    0.040258
 ---------------------------------------------------------------------

 SCF Done:  E(RwB97XD) =  -427.314353814     A.U. after   17 cycles

 Alpha  occ. eigenvalues --  -14.43525 -10.33752 -10.33238 -10.31627 -10.31381
 Alpha  occ. eigenvalues --  -10.31271 -10.30914 -10.30338 -10.30184 -10.28105
 Alpha  occ. eigenvalues --   -6.84495  -1.06007  -0.96610  -0.92084  -0.86464
 Alpha  occ. eigenvalues --   -0.85291  -0.75078  -0.73701  -0.71166  -0.63174
 Alpha  occ. eigenvalues --   -0.62243  -0.60994  -0.57216  -0.55571  -0.52790
 Alpha  occ. eigenvalues --   -0.51729  -0.51029  -0.50004  -0.48565  -0.44502
 Alpha  occ. eigenvalues --   -0.44459  -0.41793  -0.40839  -0.40263  -0.34433
 Alpha  occ. eigenvalues --   -0.33774  -0.32412
 Alpha virt. eigenvalues --   -0.02330   0.02238   0.03395   0.03829   0.04677
 Alpha virt. eigenvalues --    0.05454   0.06522   0.06802   0.07813   0.08420
 Alpha virt. eigenvalues --    0.08617   0.09194   0.09877   0.11522   0.12544

 Mulliken charges:
               1
     1  C   -0.254822
     2  C    0.254649
     3  C   -2.785110
     4  C    2.204510
     5  C   -0.028591
     6  C   -0.299960
     7  H    0.260467
     8  C   -0.227866
     9  H    0.203900
    10  H    0.236922
    11  C   -0.403696
    12  C    0.100325
    13  H    0.226872
    14  H    0.246129
    15  H    0.253803
    16  N    0.156611
    17  B   -0.127994
    18  H   -0.035590
    19  H    0.019440
 Sum of Mulliken charges =  -0.00000

 Dipole moment (field-independent basis, Debye):
    X=             -2.0843    Y=              3.5872    Z=              0.2388  Tot=              4.1556
 Quadrupole moment (field-independent basis, Debye-Ang):
   XX=            -48.2009   YY=            -49.3450   ZZ=            -67.6062
   XY=             -6.2533   XZ=             -1.8994   YZ=             -0.5170

 ESP charges:
               1
     1  C   -0.086918
     2  C   -0.314677
     3  C    0.463731
     4  C    0.030443
     5  C   -0.194595
     6  C   -0.061263
     7  H    0.118584
     8  C   -0.073144
     9  H    0.137088
    10  H    0.099058
    11  C   -0.250837
    12  C    0.327567
    13  H    0.125228
    14  H    0.126099
    15  H    0.039128
    16  N   -0.603593
    17  B    0.569711
    18  H   -0.226446
    19  H   -0.225165
 Sum of ESP charges =   0.00000

 1\1\GINC-IRENE5159\SP\RwB97XD\GenECP\C9H8B1N1\PENASFRA\10-Apr-2024\0\\
 # wb97xd/genecp scrf=(solvent=toluene,pcm) nosymm pop=(chelpg) scfcyc=
 300\\h_quinoline_chelpg\\0,1\C,0,-4.000652,0.051829,0.21461\C,0,-2.627
 021,0.057731,0.030741\C,0,-1.969639,1.333271,-0.071205\C,0,-2.735846,2
 .526388,0.018531\C,0,-4.138785,2.447893,0.207417\C,0,-4.762698,1.23471
 ,0.304252\H,0,-4.510048,-0.903264,0.292959\C,0,-2.06292,3.766303,-0.08
 5369\H,0,-4.708346,3.369753,0.273394\H,0,-5.835285,1.178613,0.448566\C
 ,0,-0.7093,3.777053,-0.267642\C,0,-0.035548,2.538169,-0.344682\H,0,-2.

 Normal termination of Gaussian 16 at Wed Apr 10 16:13:41 2024.
