 Gaussian 16, Revision C.02,
 Gaussian 16:  AS64L-G16RevC.02  7-Dec-2021

 ----------------------------------------------------------------------
 # wb97xd/genecp scrf=(solvent=toluene,pcm) nosymm pop=(chelpg) scfcyc=
 300
 ----------------------------------------------------------------------

 -----------------
 h_xanthene_chelpg
 -----------------
 Symbolic Z-matrix:
 Charge =  0 Multiplicity = 1

                          Input orientation:
 ---------------------------------------------------------------------
 Center     Atomic      Atomic             Coordinates (Angstroms)
 Number     Number       Type             X           Y           Z
 ---------------------------------------------------------------------
      1          6           0       -2.098413    1.422043    1.033791
      2          6           0       -0.732699    1.282929    1.335472
      3          6           0        0.183254    2.272919    1.023738
      4          6           0       -0.256892    3.448466    0.421649
      5          6           0       -1.600471    3.658117    0.123780
      6          6           0       -2.490798    2.626238    0.421577
      7          1           0       -0.398866    0.367090    1.811986
      8          1           0        1.235057    2.143545    1.249946
      9          1           0        0.468834    4.220198    0.194487
     10          6           0       -2.166480    4.967596   -0.416633
     11          8           0       -3.813404    2.771768    0.131063
     12          6           0       -1.105261    5.798262   -1.141402
     13          1           0       -1.529533    6.740042   -1.494190
     14          1           0       -0.292168    6.062243   -0.462166
     15          1           0       -0.686812    5.261903   -1.996791
     16          6           0       -2.707085    5.787238    0.779378
     17          1           0       -1.892810    6.030191    1.468089
     18          1           0       -3.156436    6.718334    0.422978
     19          1           0       -3.467582    5.229301    1.330606
     20          6           0       -3.343661    4.618761   -1.323410
     21          6           0       -4.149972    3.551917   -0.949369
     22          6           0       -3.683530    5.332486   -2.473265
     23          6           0       -5.317182    3.190006   -1.647801
     24          6           0       -4.813112    4.987669   -3.196781
     25          1           0       -3.069268    6.158989   -2.805777
     26          6           0       -5.628675    3.940345   -2.783795
     27          1           0       -5.074133    5.546229   -4.088538
     28          1           0       -6.513677    3.701967   -3.359122
     29          5           0       -3.078362    0.274267    1.335740
     30          7           0       -6.074179    2.081938   -1.229601
     31          6           0       -6.643712    2.159521    0.111101
     32          1           0       -7.491680    2.862259    0.149957
     33          1           0       -7.002622    1.169586    0.402192
     34          1           0       -5.890768    2.469305    0.831331
     35          6           0       -7.021717    1.547410   -2.187274
     36          1           0       -7.378008    0.583023   -1.819064
     37          1           0       -7.901256    2.195426   -2.339439
     38          1           0       -6.535782    1.384244   -3.150856
     39          1           0       -4.230522    0.327932    1.034504
     40          1           0       -2.654406   -0.702092    1.885078
 ---------------------------------------------------------------------

 SCF Done:  E(RwB97XD) =  -814.600482107     A.U. after   16 cycles

 Alpha  occ. eigenvalues --  -19.29743 -14.44150 -10.36170 -10.34801 -10.32791
 Alpha  occ. eigenvalues --  -10.32081 -10.30413 -10.30364 -10.30319 -10.29989
 Alpha  occ. eigenvalues --  -10.29907 -10.29838 -10.28982 -10.28661 -10.28520
 Alpha  occ. eigenvalues --  -10.28487 -10.27916 -10.27754 -10.27613  -6.84460
 Alpha  occ. eigenvalues --   -1.20445  -1.04625  -0.97665  -0.96596  -0.92246
 Alpha  occ. eigenvalues --   -0.87311  -0.85426  -0.84046  -0.82858  -0.80978
 Alpha  occ. eigenvalues --   -0.79403  -0.75776  -0.74162  -0.73212  -0.69630
 Alpha  occ. eigenvalues --   -0.67279  -0.65171  -0.64724  -0.60864  -0.58855
 Alpha  occ. eigenvalues --   -0.57874  -0.56891  -0.56698  -0.55922  -0.55200
 Alpha  occ. eigenvalues --   -0.54549  -0.53743  -0.53315  -0.51491  -0.49861
 Alpha  occ. eigenvalues --   -0.49033  -0.48589  -0.48046  -0.47814  -0.47465
 Alpha  occ. eigenvalues --   -0.47025  -0.45936  -0.45392  -0.45321  -0.44662
 Alpha  occ. eigenvalues --   -0.44191  -0.43309  -0.42582  -0.41510  -0.40500
 Alpha  occ. eigenvalues --   -0.39019  -0.35822  -0.34389  -0.33115  -0.30556
 Alpha  occ. eigenvalues --   -0.27622
 Alpha virt. eigenvalues --   -0.00858   0.03848   0.04441   0.04839   0.05071
 Alpha virt. eigenvalues --    0.05309   0.05674   0.05995   0.06236   0.06665
 Alpha virt. eigenvalues --    0.06878   0.07086   0.07500   0.07744   0.07870

 Mulliken charges:
               1
     1  C    0.411039
     2  C   -0.290778
     3  C   -0.740826
     4  C   -0.224092
     5  C    0.373383
     6  C    0.010511
     7  H    0.245721
     8  H    0.238854
     9  H    0.176474
    10  C   -0.161318
    11  O   -0.037075
    12  C   -0.441222
    13  H    0.169452
    14  H    0.166684
    15  H    0.199745
    16  C   -0.773169
    17  H    0.179753
    18  H    0.187048
    19  H    0.188270
    20  C    0.634166
    21  C   -0.117452
    22  C   -0.332160
    23  C   -0.361477
    24  C   -0.522697
    25  H    0.152096
    26  C   -0.019836
    27  H    0.247923
    28  H    0.182867
    29  B   -0.196213
    30  N    0.200203
    31  C   -0.456200
    32  H    0.157219
    33  H    0.178636
    34  H    0.178768
    35  C   -0.347059
    36  H    0.176756
    37  H    0.150014
    38  H    0.166260
    39  H    0.055115
    40  H   -0.005381
 Sum of Mulliken charges =  -0.00000

 Dipole moment (field-independent basis, Debye):
    X=              0.4242    Y=              1.8771    Z=             -0.6219  Tot=              2.0224
 Quadrupole moment (field-independent basis, Debye-Ang):
   XX=           -108.8659   YY=           -107.2017   ZZ=           -118.7898
   XY=              0.6011   XZ=              6.8369   YZ=             -3.1367

 ESP charges:
               1
     1  C   -0.249536
     2  C   -0.071450
     3  C   -0.159575
     4  C   -0.067800
     5  C   -0.130182
     6  C    0.285681
     7  H    0.103322
     8  H    0.108183
     9  H    0.112830
    10  C    0.357148
    11  O   -0.258268
    12  C   -0.259631
    13  H    0.078272
    14  H    0.080585
    15  H    0.027686
    16  C   -0.163501
    17  H    0.024122
    18  H    0.027212
    19  H    0.044147
    20  C   -0.077818
    21  C    0.062470
    22  C   -0.161695
    23  C    0.273995
    24  C   -0.179256
    25  H    0.127660
    26  C   -0.187297
    27  H    0.123229
    28  H    0.134495
    29  B    0.499628
    30  N   -0.365177
    31  C    0.094251
    32  H   -0.017804
    33  H    0.056337
    34  H    0.036913
    35  C   -0.104203
    36  H    0.091801
    37  H    0.060778
    38  H    0.058007
    39  H   -0.215251
    40  H   -0.200310
 Sum of ESP charges =  -0.00000

 Normal termination of Gaussian 16 at Wed Apr 10 16:28:57 2024.
