 Gaussian 16, Revision C.02,
 Gaussian 16:  AS64L-G16RevC.02  7-Dec-2021

 ----------------------------------------------------------------------
 # wb97xd/genecp scrf=(solvent=toluene,pcm) nosymm pop=(chelpg) scfcyc=
 300
 ----------------------------------------------------------------------

 ---------------------
 ipr_metriazole_chelpg
 ---------------------
 Symbolic Z-matrix:
 Charge =  0 Multiplicity = 1

                          Input orientation:
 ---------------------------------------------------------------------
 Center     Atomic      Atomic             Coordinates (Angstroms)
 Number     Number       Type             X           Y           Z
 ---------------------------------------------------------------------
      1          6           0        2.491608    1.433407    0.604793
      2          1           0        1.491433    1.164997    0.901710
      3          6           0        3.727467    0.862811    0.862230
      4          7           0        2.734171    2.501440   -0.165705
      5          7           0        4.056981    2.621228   -0.395423
      6          7           0        4.649030    1.653061    0.209510
      7          5           0        4.138472   -0.395178    1.679319
      8          6           0        1.802902    3.471471   -0.709763
      9          1           0        1.390412    4.088658    0.089079
     10          1           0        2.354147    4.098485   -1.407291
     11          1           0        0.998397    2.957872   -1.235835
     12          6           0        5.668524   -0.784724    1.770606
     13          6           0        6.142906   -0.687751    3.232281
     14          6           0        5.910318   -2.200800    1.220712
     15          1           0        6.022472    0.323649    3.632728
     16          1           0        5.587503   -1.373440    3.881429
     17          1           0        7.203816   -0.948712    3.309606
     18          1           0        5.618627   -2.283391    0.169128
     19          1           0        6.971217   -2.464218    1.290006
     20          1           0        5.348015   -2.953624    1.783565
     21          6           0        3.050151   -1.286521    2.419847
     22          6           0        2.099679   -1.966485    1.418097
     23          6           0        2.264612   -0.501300    3.483938
     24          1           0        1.496425   -1.237214    0.869054
     25          1           0        2.648455   -2.558106    0.678905
     26          1           0        1.410557   -2.641457    1.937065
     27          1           0        1.587520   -1.165588    4.031814
     28          1           0        2.931886   -0.033363    4.214141
     29          1           0        1.657402    0.293722    3.041546
     30          1           0        3.574594   -2.091693    2.949282
     31          1           0        6.264062   -0.084663    1.177189
 ---------------------------------------------------------------------

 SCF Done:  E(RwB97XD) =  -542.863365221     A.U. after   15 cycles

 Alpha  occ. eigenvalues --  -14.53501 -14.49583 -14.45873 -10.33916 -10.33872
 Alpha  occ. eigenvalues --  -10.29284 -10.27317 -10.27273 -10.26612 -10.26545
 Alpha  occ. eigenvalues --  -10.26356 -10.25344  -6.83799  -1.21592  -1.03023
 Alpha  occ. eigenvalues --   -0.91392  -0.88513  -0.86839  -0.84343  -0.78163
 Alpha  occ. eigenvalues --   -0.77205  -0.73636  -0.69247  -0.68509  -0.66487
 Alpha  occ. eigenvalues --   -0.63175  -0.59566  -0.56593  -0.54777  -0.54057
 Alpha  occ. eigenvalues --   -0.52473  -0.51673  -0.51506  -0.50844  -0.49324
 Alpha  occ. eigenvalues --   -0.49173  -0.47884  -0.46925  -0.45821  -0.43273
 Alpha  occ. eigenvalues --   -0.42264  -0.41453  -0.41063  -0.41040  -0.38206
 Alpha  occ. eigenvalues --   -0.37275  -0.36603  -0.34978  -0.34559
 Alpha virt. eigenvalues --    0.02137   0.03592   0.04530   0.04861   0.05331
 Alpha virt. eigenvalues --    0.06203   0.06640   0.07105   0.07532   0.07843
 Alpha virt. eigenvalues --    0.08063   0.09033   0.09247   0.09395   0.09887

 Mulliken charges:
               1
     1  C   -0.284348
     2  H    0.292169
     3  C   -0.774229
     4  N    0.245038
     5  N    0.167864
     6  N   -0.150397
     7  B    0.310739
     8  C   -0.349398
     9  H    0.203910
    10  H    0.214513
    11  H    0.189900
    12  C   -0.070682
    13  C   -0.632851
    14  C   -0.619495
    15  H    0.160053
    16  H    0.173775
    17  H    0.167894
    18  H    0.162461
    19  H    0.167515
    20  H    0.172089
    21  C   -0.025417
    22  C   -0.521149
    23  C   -0.522438
    24  H    0.143387
    25  H    0.181976
    26  H    0.160114
    27  H    0.159789
    28  H    0.181885
    29  H    0.129234
    30  H    0.204601
    31  H    0.161499
 Sum of Mulliken charges =  -0.00000

 Dipole moment (field-independent basis, Debye):
    X=             -5.3011    Y=              0.6467    Z=              0.1707  Tot=              5.3431
 Quadrupole moment (field-independent basis, Debye-Ang):
   XX=           -117.4048   YY=            -77.2835   ZZ=            -81.5632
   XY=            -11.2823   XZ=              1.9284   YZ=             -1.0120

 ESP charges:
               1
     1  C   -0.404136
     2  H    0.202457
     3  C    0.186486
     4  N    0.602056
     5  N   -0.413761
     6  N   -0.234429
     7  B   -0.019724
     8  C   -0.341770
     9  H    0.130871
    10  H    0.127029
    11  H    0.127926
    12  C    0.466699
    13  C   -0.254304
    14  C   -0.260947
    15  H    0.039940
    16  H    0.023641
    17  H    0.051705
    18  H    0.042416
    19  H    0.052008
    20  H    0.022680
    21  C    0.460224
    22  C   -0.317736
    23  C   -0.354842
    24  H    0.043859
    25  H    0.050720
    26  H    0.061827
    27  H    0.071309
    28  H    0.058818
    29  H    0.053372
    30  H   -0.093015
    31  H   -0.181380
 Sum of ESP charges =   0.00000

 Normal termination of Gaussian 16 at Tue Apr  9 17:33:04 2024.
