 Gaussian 16, Revision C.02,
 Gaussian 16:  AS64L-G16RevC.02  7-Dec-2021

 ----------------------------------------------------------------------
 # wb97xd/genecp scrf=(solvent=toluene,pcm) nosymm pop=(chelpg) scfcyc=
 300
 ----------------------------------------------------------------------

 --------------------------
 ipr_dimethylaniline_chelpg
 --------------------------
 Symbolic Z-matrix:
 Charge =  0 Multiplicity = 1

                          Input orientation:
 ---------------------------------------------------------------------
 Center     Atomic      Atomic             Coordinates (Angstroms)
 Number     Number       Type             X           Y           Z
 ---------------------------------------------------------------------
      1          6           0       -0.899441    1.176776    0.586833
      2          6           0        0.485457    1.057202    0.655342
      3          6           0        1.312620    2.100546    0.232773
      4          6           0        0.716565    3.264965   -0.250303
      5          6           0       -0.667142    3.391977   -0.328284
      6          6           0       -1.476510    2.341134    0.090133
      7          1           0       -1.530425    0.358000    0.915529
      8          1           0        0.920737    0.138731    1.037251
      9          1           0       -1.114441    4.303097   -0.712582
     10          1           0       -2.555558    2.431459    0.030126
     11          7           0        1.633134    4.310802   -0.643482
     12          5           0        2.891374    2.136690    0.246220
     13          6           0        1.648478    5.416937    0.308413
     14          1           0        1.841147    5.039023    1.313223
     15          1           0        2.448645    6.112337    0.040939
     16          1           0        0.697082    5.973180    0.322064
     17          6           0        1.422490    4.793774   -2.002792
     18          1           0        1.374263    3.949796   -2.691054
     19          1           0        0.499066    5.385571   -2.109596
     20          1           0        2.264657    5.428344   -2.291716
     21          6           0        3.703919    1.379326   -0.889230
     22          6           0        3.367589    1.866394   -2.303679
     23          6           0        3.420328   -0.131811   -0.775550
     24          1           0        2.300179    1.740391   -2.513989
     25          1           0        3.611068    2.923809   -2.433287
     26          1           0        3.924587    1.294524   -3.054181
     27          1           0        4.035661   -0.689844   -1.489207
     28          1           0        3.638077   -0.522930    0.223496
     29          1           0        2.371840   -0.350775   -1.000145
     30          6           0        3.643674    2.744316    1.504012
     31          6           0        4.199373    1.567144    2.330568
     32          6           0        4.767547    3.716910    1.127268
     33          1           0        4.949359    1.006007    1.763165
     34          1           0        4.680961    1.932089    3.243784
     35          1           0        3.412427    0.867128    2.630330
     36          1           0        5.249393    4.123724    2.023205
     37          1           0        5.542506    3.219965    0.535186
     38          1           0        4.386852    4.555323    0.537668
     39          1           0        4.779895    1.523195   -0.730404
     40          1           0        2.928590    3.276079    2.142692
 ---------------------------------------------------------------------

 SCF Done:  E(RwB97XD) =  -627.520464231     A.U. after   16 cycles

 Alpha  occ. eigenvalues --  -14.43749 -10.31361 -10.30229 -10.30163 -10.28692
 Alpha  occ. eigenvalues --  -10.28633 -10.28591 -10.28514 -10.27065 -10.26782
 Alpha  occ. eigenvalues --  -10.26652 -10.26395 -10.26349 -10.25819 -10.25806
 Alpha  occ. eigenvalues --   -6.83846  -1.03969  -0.94941  -0.88662  -0.86788
 Alpha  occ. eigenvalues --   -0.84500  -0.84268  -0.80766  -0.77726  -0.77087
 Alpha  occ. eigenvalues --   -0.74271  -0.70861  -0.67897  -0.66671  -0.66325
 Alpha  occ. eigenvalues --   -0.61132  -0.56928  -0.56423  -0.55309  -0.54788
 Alpha  occ. eigenvalues --   -0.54088  -0.52861  -0.52462  -0.51307  -0.50575
 Alpha  occ. eigenvalues --   -0.49085  -0.48516  -0.48234  -0.47553  -0.47199
 Alpha  occ. eigenvalues --   -0.46134  -0.45939  -0.45253  -0.44894  -0.43578
 Alpha  occ. eigenvalues --   -0.42652  -0.41676  -0.41496  -0.41064  -0.40793
 Alpha  occ. eigenvalues --   -0.36416  -0.35849  -0.32853  -0.31829  -0.30510
 Alpha virt. eigenvalues --    0.03785   0.04571   0.04649   0.05071   0.05357
 Alpha virt. eigenvalues --    0.05471   0.06134   0.06409   0.06703   0.06949
 Alpha virt. eigenvalues --    0.07562   0.07727   0.08304   0.08497   0.09058

 Mulliken charges:
               1
     1  C   -0.443442
     2  C   -0.059187
     3  C    0.311611
     4  C   -0.325438
     5  C   -0.027347
     6  C   -0.508856
     7  H    0.221322
     8  H    0.252608
     9  H    0.204276
    10  H    0.229479
    11  N    0.174188
    12  B   -0.288346
    13  C   -0.335074
    14  H    0.151540
    15  H    0.201792
    16  H    0.160099
    17  C   -0.304777
    18  H    0.166262
    19  H    0.141890
    20  H    0.192763
    21  C   -0.032933
    22  C   -0.616671
    23  C   -0.648301
    24  H    0.187956
    25  H    0.141647
    26  H    0.184648
    27  H    0.152755
    28  H    0.157562
    29  H    0.201183
    30  C   -0.018380
    31  C   -0.658895
    32  C   -0.577444
    33  H    0.200830
    34  H    0.172632
    35  H    0.178954
    36  H    0.170559
    37  H    0.158550
    38  H    0.133965
    39  H    0.183661
    40  H    0.212359
 Sum of Mulliken charges =  -0.00000

 Dipole moment (field-independent basis, Debye):
    X=             -0.4332    Y=              1.0827    Z=             -0.2211  Tot=              1.1870
 Quadrupole moment (field-independent basis, Debye-Ang):
   XX=           -101.3581   YY=            -90.3898   ZZ=           -102.8705
   XY=             -0.0683   XZ=              0.1899   YZ=             -3.9750

 ESP charges:
               1
     1  C   -0.142131
     2  C   -0.120722
     3  C   -0.190056
     4  C    0.354981
     5  C   -0.273655
     6  C   -0.081311
     7  H    0.104473
     8  H    0.114263
     9  H    0.159682
    10  H    0.096241
    11  N   -0.285242
    12  B    0.254459
    13  C   -0.191794
    14  H    0.076050
    15  H    0.121390
    16  H    0.059306
    17  C   -0.070874
    18  H    0.042011
    19  H    0.036465
    20  H    0.085842
    21  C    0.178660
    22  C   -0.254791
    23  C   -0.076762
    24  H    0.046876
    25  H    0.030584
    26  H    0.058791
    27  H    0.002009
    28  H    0.011883
    29  H   -0.007970
    30  C    0.178433
    31  C   -0.171692
    32  C   -0.286522
    33  H    0.027708
    34  H    0.042577
    35  H    0.016612
    36  H    0.072679
    37  H    0.046778
    38  H    0.039732
    39  H   -0.046244
    40  H   -0.058717
 Sum of ESP charges =   0.00000

 Normal termination of Gaussian 16 at Tue Apr  9 17:19:12 2024.
