 Gaussian 16, Revision C.02,
 Gaussian 16:  AS64L-G16RevC.02  7-Dec-2021

 ----------------------------------------------------------------------
 # wb97xd/genecp scrf=(solvent=toluene,pcm) nosymm pop=(chelpg) scfcyc=
 300
 ----------------------------------------------------------------------

 -----------------
 me_aniline_chelpg
 -----------------
 Symbolic Z-matrix:
 Charge =  0 Multiplicity = 1

                          Input orientation:
 ---------------------------------------------------------------------
 Center     Atomic      Atomic             Coordinates (Angstroms)
 Number     Number       Type             X           Y           Z
 ---------------------------------------------------------------------
      1          6           0       -0.692534    0.967658    0.885918
      2          6           0        0.687371    1.075066    0.885933
      3          6           0        1.380277    2.161344    0.315363
      4          6           0        0.589234    3.200062   -0.240794
      5          6           0       -0.811695    3.097323   -0.230703
      6          6           0       -1.441354    1.996182    0.317192
      7          1           0       -1.180310    0.104116    1.322278
      8          1           0        1.265554    0.271747    1.330113
      9          1           0       -1.403340    3.898731   -0.662994
     10          1           0       -2.524965    1.942690    0.307372
     11          7           0        1.148947    4.324277   -0.826904
     12          5           0        2.941982    2.074012    0.259822
     13          6           0        3.823307    2.869771   -0.784816
     14          1           0        3.314452    3.136860   -1.713900
     15          1           0        4.161373    3.808501   -0.317235
     16          1           0        4.740969    2.322915   -1.023595
     17          6           0        3.721804    1.105057    1.235095
     18          1           0        3.868398    0.147654    0.713290
     19          1           0        4.727789    1.479424    1.450753
     20          1           0        3.220223    0.882685    2.179927
     21          1           0        2.076274    4.584159   -0.537856
     22          1           0        0.533461    5.115019   -0.930757
 ---------------------------------------------------------------------

 SCF Done:  E(RwB97XD) =  -391.678562649     A.U. after   16 cycles

 Alpha  occ. eigenvalues --  -14.43890 -10.33634 -10.29215 -10.28791 -10.28136
 Alpha  occ. eigenvalues --  -10.27547 -10.26513 -10.24953 -10.24624  -6.84040
 Alpha  occ. eigenvalues --   -1.02762  -0.94148  -0.84959  -0.82617  -0.80437
 Alpha  occ. eigenvalues --   -0.77124  -0.70583  -0.69423  -0.61922  -0.60415
 Alpha  occ. eigenvalues --   -0.56842  -0.53151  -0.52296  -0.50823  -0.50314
 Alpha  occ. eigenvalues --   -0.49438  -0.47630  -0.46543  -0.46188  -0.44987
 Alpha  occ. eigenvalues --   -0.43324  -0.40379  -0.38745  -0.38270  -0.33242
 Alpha  occ. eigenvalues --   -0.28458
 Alpha virt. eigenvalues --    0.01795   0.03951   0.04992   0.05023   0.06117
 Alpha virt. eigenvalues --    0.06649   0.06710   0.07001   0.08350   0.08914
 Alpha virt. eigenvalues --    0.09281   0.09347   0.09731   0.10969   0.12086

 Mulliken charges:
               1
     1  C   -0.357803
     2  C    0.059675
     3  C    0.573742
     4  C   -0.691775
     5  C   -0.144035
     6  C   -0.343593
     7  H    0.213939
     8  H    0.184816
     9  H    0.183596
    10  H    0.217329
    11  N   -0.300038
    12  B    0.303386
    13  C   -0.763232
    14  H    0.181681
    15  H    0.167492
    16  H    0.160698
    17  C   -0.700451
    18  H    0.186373
    19  H    0.169666
    20  H    0.140479
    21  H    0.272284
    22  H    0.285772
 Sum of Mulliken charges =  -0.00000

 Dipole moment (field-independent basis, Debye):
    X=             -0.0479    Y=              1.7211    Z=              0.0989  Tot=              1.7246
 Quadrupole moment (field-independent basis, Debye-Ang):
   XX=            -57.3522   YY=            -45.4567   ZZ=            -66.2743
   XY=              1.6115   XZ=              0.8486   YZ=             -2.0122

 ESP charges:
               1
     1  C   -0.222239
     2  C    0.000492
     3  C   -0.408046
     4  C    0.494385
     5  C   -0.318044
     6  C   -0.002760
     7  H    0.105900
     8  H    0.091247
     9  H    0.138189
    10  H    0.093057
    11  N   -0.875341
    12  B    0.564573
    13  C   -0.348996
    14  H    0.058642
    15  H    0.070802
    16  H    0.055930
    17  C   -0.479927
    18  H    0.108984
    19  H    0.090704
    20  H    0.070116
    21  H    0.341352
    22  H    0.370979
 Sum of ESP charges =  -0.00000

 Normal termination of Gaussian 16 at Wed Apr 10 14:59:59 2024.
