 Gaussian 16, Revision C.02,
 Gaussian 16:  AS64L-G16RevC.02  7-Dec-2021

 ----------------------------------------------------------------------
 # wb97xd/genecp scrf=(solvent=toluene,pcm) nosymm pop=(chelpg) scfcyc=
 300
 ----------------------------------------------------------------------

 -------------------------
 me_benzopiperidine_chelpg
 -------------------------
 Symbolic Z-matrix:
 Charge =  0 Multiplicity = 1

                          Input orientation:
 ---------------------------------------------------------------------
 Center     Atomic      Atomic             Coordinates (Angstroms)
 Number     Number       Type             X           Y           Z
 ---------------------------------------------------------------------
      1          6           0       -0.620078    0.957122    0.681860
      2          6           0        0.757522    1.090950    0.813170
      3          6           0        1.459358    2.191288    0.304566
      4          6           0        0.710206    3.236072   -0.291827
      5          6           0       -0.678600    3.105525   -0.410231
      6          6           0       -1.331492    1.970118    0.056418
      7          1           0       -1.127256    0.078277    1.063158
      8          1           0        1.314223    0.293590    1.296561
      9          1           0       -1.267210    3.898934   -0.852382
     10          1           0       -2.408532    1.895356   -0.051452
     11          5           0        3.024923    2.080039    0.288007
     12          6           0        3.892424    2.533408   -0.947280
     13          1           0        3.325085    2.938022   -1.785515
     14          1           0        4.622221    3.290100   -0.630748
     15          1           0        4.494732    1.681114   -1.288343
     16          6           0        3.772842    1.359080    1.478770
     17          1           0        3.905198    0.302868    1.201329
     18          1           0        4.783399    1.752199    1.628223
     19          1           0        3.238166    1.374400    2.431959
     20          6           0        0.653777    5.279488   -1.643168
     21          6           0        2.133578    5.133073    0.265471
     22          6           0        1.615012    6.231601   -2.349824
     23          6           0        3.136856    6.084041   -0.373965
     24          6           0        2.436538    7.033142   -1.343646
     25          1           0        1.041211    6.897409   -3.001032
     26          1           0        2.284751    5.644808   -2.988132
     27          1           0        3.652508    6.642089    0.413066
     28          1           0        3.888761    5.498325   -0.912546
     29          1           0        3.164676    7.666772   -1.857373
     30          1           0        1.771062    7.700713   -0.781376
     31          7           0        1.377019    4.390480   -0.745215
     32          1           0        2.645737    4.431141    0.924274
     33          1           0        1.435668    5.710647    0.899966
     34          1           0       -0.105045    5.870986   -1.097415
     35          1           0        0.129109    4.673976   -2.384812
 ---------------------------------------------------------------------

 SCF Done:  E(RwB97XD) =  -587.018617057     A.U. after   16 cycles

 Alpha  occ. eigenvalues --  -14.43669 -10.32453 -10.31160 -10.30846 -10.28841
 Alpha  occ. eigenvalues --  -10.28663 -10.28031 -10.27846 -10.27825 -10.27804
 Alpha  occ. eigenvalues --  -10.27800 -10.26438 -10.24637 -10.24160  -6.84041
 Alpha  occ. eigenvalues --   -1.04935  -0.95089  -0.90232  -0.86274  -0.84514
 Alpha  occ. eigenvalues --   -0.83216  -0.80115  -0.76717  -0.74740  -0.73176
 Alpha  occ. eigenvalues --   -0.68855  -0.68341  -0.64821  -0.62428  -0.57406
 Alpha  occ. eigenvalues --   -0.56173  -0.55549  -0.54024  -0.53132  -0.52077
 Alpha  occ. eigenvalues --   -0.51139  -0.50473  -0.50086  -0.49482  -0.48939
 Alpha  occ. eigenvalues --   -0.47182  -0.46322  -0.45701  -0.45380  -0.44714
 Alpha  occ. eigenvalues --   -0.43698  -0.42668  -0.41373  -0.40369  -0.40034
 Alpha  occ. eigenvalues --   -0.38835  -0.38139  -0.35193  -0.32682  -0.27659
 Alpha virt. eigenvalues --    0.02308   0.03926   0.04746   0.04787   0.05412
 Alpha virt. eigenvalues --    0.06032   0.06150   0.06411   0.07034   0.07219
 Alpha virt. eigenvalues --    0.07980   0.08075   0.08380   0.09123   0.09348

 Mulliken charges:
               1
     1  C   -0.437749
     2  C    0.020350
     3  C    0.021648
     4  C   -0.110541
     5  C   -0.037132
     6  C   -0.438192
     7  H    0.214567
     8  H    0.221365
     9  H    0.186756
    10  H    0.229318
    11  B    0.125023
    12  C   -0.670893
    13  H    0.197898
    14  H    0.143331
    15  H    0.187814
    16  C   -0.711142
    17  H    0.188149
    18  H    0.166699
    19  H    0.164933
    20  C   -0.113109
    21  C   -0.490771
    22  C   -0.544875
    23  C   -0.244500
    24  C   -0.394481
    25  H    0.194879
    26  H    0.167395
    27  H    0.200490
    28  H    0.124238
    29  H    0.198548
    30  H    0.148204
    31  N    0.400681
    32  H    0.130467
    33  H    0.211580
    34  H    0.166302
    35  H    0.182752
 Sum of Mulliken charges =  -0.00000

 Dipole moment (field-independent basis, Debye):
    X=              0.0098    Y=              1.6068    Z=             -0.3179  Tot=              1.6380
 Quadrupole moment (field-independent basis, Debye-Ang):
   XX=            -89.8889   YY=            -76.6333   ZZ=            -94.8586
   XY=              2.9434   XZ=              1.5283   YZ=             -4.3295

 ESP charges:
               1
     1  C   -0.191149
     2  C   -0.023385
     3  C   -0.361885
     4  C    0.379932
     5  C   -0.229069
     6  C   -0.069556
     7  H    0.110234
     8  H    0.079148
     9  H    0.105645
    10  H    0.104397
    11  B    0.589712
    12  C   -0.471554
    13  H    0.071061
    14  H    0.104825
    15  H    0.073771
    16  C   -0.291746
    17  H    0.057023
    18  H    0.040192
    19  H    0.026640
    20  C    0.197000
    21  C    0.268343
    22  C   -0.079944
    23  C   -0.007466
    24  C    0.013057
    25  H    0.013101
    26  H    0.043385
    27  H   -0.002546
    28  H    0.012442
    29  H    0.004420
    30  H    0.005538
    31  N   -0.479715
    32  H   -0.049863
    33  H   -0.043136
    34  H   -0.001197
    35  H    0.002344
 Sum of ESP charges =  -0.00000

 Normal termination of Gaussian 16 at Tue Apr  9 18:30:20 2024.
