 Gaussian 16, Revision C.02,
 Gaussian 16:  AS64L-G16RevC.02  7-Dec-2021

 ----------------------------------------------------------------------
 # wb97xd/genecp scrf=(solvent=toluene,pcm) nosymm pop=(chelpg) scfcyc=
 300
 ----------------------------------------------------------------------

 ------------------------
 me_Bbenzoxanthene_chelpg
 ------------------------
 Symbolic Z-matrix:
 Charge =  0 Multiplicity = 1

                          Input orientation:
 ---------------------------------------------------------------------
 Center     Atomic      Atomic             Coordinates (Angstroms)
 Number     Number       Type             X           Y           Z
 ---------------------------------------------------------------------
      1          6           0       -2.163343    1.659987    1.174706
      2          6           0       -0.935102    1.829042    1.874281
      3          6           0       -0.102638    2.895248    1.676599
      4          6           0       -0.458489    3.917373    0.763241
      5          6           0       -1.684160    3.808004    0.057539
      6          6           0       -2.497925    2.670494    0.285533
      7          1           0       -0.638884    1.064130    2.583899
      8          1           0        0.832202    2.976339    2.220276
      9          6           0       -2.083277    4.817084   -0.865019
     10          8           0       -3.690392    2.564777   -0.357442
     11          6           0       -3.362328    4.623025   -1.565254
     12          6           0       -4.113434    3.492467   -1.259024
     13          6           0       -3.851512    5.499111   -2.543724
     14          6           0       -5.351822    3.212216   -1.875982
     15          6           0       -5.047558    5.236591   -3.178521
     16          6           0       -5.795478    4.108159   -2.844317
     17          1           0       -5.417269    5.915128   -3.938410
     18          1           0       -6.737028    3.930825   -3.347657
     19          5           0       -3.022839    0.365843    1.416187
     20          7           0       -6.042203    2.033540   -1.539764
     21          6           0       -3.066547   -0.281546    2.852805
     22          1           0       -4.036036    0.019048    3.279564
     23          1           0       -3.088348   -1.375848    2.819726
     24          1           0       -2.300918    0.043529    3.560612
     25          6           0       -3.808838   -0.373247    0.270488
     26          1           0       -3.103386   -1.122997   -0.122704
     27          1           0       -4.664065   -0.942820    0.649471
     28          1           0       -4.125100    0.245435   -0.568513
     29          6           0       -6.510158    1.936341   -0.160888
     30          1           0       -7.385061    2.581862    0.015187
     31          1           0       -6.793902    0.901835    0.046072
     32          1           0       -5.720583    2.213535    0.533457
     33          6           0       -7.048036    1.583660   -2.481687
     34          1           0       -7.338027    0.564633   -2.216540
     35          1           0       -7.959290    2.204771   -2.476870
     36          1           0       -6.638605    1.568823   -3.493261
     37          6           0       -1.259915    5.905003   -1.056263
     38          6           0       -0.043410    6.017831   -0.356554
     39          6           0        0.354498    5.052756    0.530409
     40          1           0        0.583533    6.885797   -0.528115
     41          1           0        1.293207    5.145722    1.065594
     42          1           0       -3.285746    6.381335   -2.813909
     43          1           0       -1.535887    6.691017   -1.747420
 ---------------------------------------------------------------------

 SCF Done:  E(RwB97XD) =  -928.951225667     A.U. after   17 cycles

 Alpha  occ. eigenvalues --  -19.30897 -14.44515 -10.36710 -10.36070 -10.33276
 Alpha  occ. eigenvalues --  -10.31631 -10.30973 -10.30967 -10.30834 -10.30655
 Alpha  occ. eigenvalues --  -10.30259 -10.29714 -10.29333 -10.29240 -10.29217
 Alpha  occ. eigenvalues --  -10.29210 -10.29179 -10.29143 -10.28359 -10.27088
 Alpha  occ. eigenvalues --  -10.24703 -10.23902  -6.84217  -1.21635  -1.05055
 Alpha  occ. eigenvalues --   -0.99278  -0.97126  -0.93130  -0.90073  -0.87690
 Alpha  occ. eigenvalues --   -0.85484  -0.84829  -0.81560  -0.80974  -0.80081
 Alpha  occ. eigenvalues --   -0.76771  -0.76226  -0.75273  -0.72906  -0.72551
 Alpha  occ. eigenvalues --   -0.67902  -0.66172  -0.65296  -0.61978  -0.60734
 Alpha  occ. eigenvalues --   -0.59063  -0.58331  -0.57027  -0.56756  -0.55780
 Alpha  occ. eigenvalues --   -0.55037  -0.53900  -0.53351  -0.52738  -0.51727
 Alpha  occ. eigenvalues --   -0.50952  -0.49474  -0.49100  -0.48919  -0.48389
 Alpha  occ. eigenvalues --   -0.47843  -0.47597  -0.47273  -0.46828  -0.46064
 Alpha  occ. eigenvalues --   -0.45895  -0.45644  -0.45155  -0.44811  -0.42431
 Alpha  occ. eigenvalues --   -0.41991  -0.41742  -0.39148  -0.38426  -0.38169
 Alpha  occ. eigenvalues --   -0.34932  -0.34367  -0.32888  -0.28518  -0.26312
 Alpha virt. eigenvalues --   -0.00052   0.02054   0.03779   0.04061   0.04463
 Alpha virt. eigenvalues --    0.04508   0.05572   0.05653   0.05809   0.06658
 Alpha virt. eigenvalues --    0.06883   0.07170   0.07252   0.07466   0.08257

 Mulliken charges:
               1
     1  C    0.274727
     2  C   -0.093095
     3  C   -0.328791
     4  C    0.119159
     5  C    0.043487
     6  C   -0.292706
     7  H    0.208859
     8  H    0.201201
     9  C    0.911048
    10  O    0.051631
    11  C    0.826277
    12  C   -0.193937
    13  C   -0.845366
    14  C   -0.258358
    15  C   -0.460686
    16  C   -0.199160
    17  H    0.250207
    18  H    0.190110
    19  B    0.125385
    20  N    0.179560
    21  C   -0.658065
    22  H    0.190567
    23  H    0.153043
    24  H    0.137024
    25  C   -0.698464
    26  H    0.186918
    27  H    0.147316
    28  H    0.278493
    29  C   -0.448666
    30  H    0.179910
    31  H    0.169308
    32  H    0.191990
    33  C   -0.362869
    34  H    0.183347
    35  H    0.147190
    36  H    0.174233
    37  C   -0.583015
    38  C   -0.507982
    39  C   -0.250004
    40  H    0.255489
    41  H    0.177071
    42  H    0.122872
    43  H    0.104737
 Sum of Mulliken charges =  -0.00000

 Dipole moment (field-independent basis, Debye):
    X=             -1.2520    Y=              0.6879    Z=             -0.6860  Tot=              1.5847
 Quadrupole moment (field-independent basis, Debye-Ang):
   XX=           -113.4642   YY=           -125.7795   ZZ=           -132.9241
   XY=              0.4908   XZ=             10.2382   YZ=             -8.0173

 ESP charges:
               1
     1  C   -0.399931
     2  C    0.018349
     3  C   -0.383017
     4  C    0.314468
     5  C   -0.117963
     6  C    0.302568
     7  H    0.090820
     8  H    0.157301
     9  C    0.121498
    10  O   -0.199787
    11  C   -0.023740
    12  C    0.121781
    13  C   -0.180688
    14  C    0.155510
    15  C   -0.142030
    16  C   -0.165257
    17  H    0.116545
    18  H    0.130681
    19  B    0.631717
    20  N   -0.213119
    21  C   -0.475955
    22  H    0.079557
    23  H    0.083212
    24  H    0.086847
    25  C   -0.335551
    26  H    0.041679
    27  H    0.071215
    28  H   -0.005518
    29  C    0.080677
    30  H   -0.012988
    31  H    0.045886
    32  H   -0.002557
    33  C   -0.138265
    34  H    0.087625
    35  H    0.062779
    36  H    0.063164
    37  C   -0.252585
    38  C    0.000527
    39  C   -0.320414
    40  H    0.095755
    41  H    0.146342
    42  H    0.128539
    43  H    0.134321
 Sum of ESP charges =  -0.00000

 Normal termination of Gaussian 16 at Wed Apr 10 15:15:39 2024.
