 Gaussian 16, Revision C.02,
 Gaussian 16:  AS64L-G16RevC.02  7-Dec-2021

 ----------------------------------------------------------------------
 # wb97xd/genecp scrf=(solvent=toluene,pcm) nosymm pop=(chelpg) scfcyc=
 300
 ----------------------------------------------------------------------

 --------------------------
 me_benzopyrrolidine_chelpg
 --------------------------
 Symbolic Z-matrix:
 Charge =  0 Multiplicity = 1

                          Input orientation:
 ---------------------------------------------------------------------
 Center     Atomic      Atomic             Coordinates (Angstroms)
 Number     Number       Type             X           Y           Z
 ---------------------------------------------------------------------
      1          6           0       -0.637169    1.139169    0.587856
      2          6           0        0.716224    1.321028    0.843518
      3          6           0        1.457422    2.378284    0.297744
      4          6           0        0.758535    3.356792   -0.462094
      5          6           0       -0.605422    3.152863   -0.743587
      6          6           0       -1.282855    2.055757   -0.231711
      7          1           0       -1.170923    0.293902    1.006133
      8          1           0        1.233682    0.586156    1.453597
      9          1           0       -1.148740    3.856628   -1.360085
     10          1           0       -2.335035    1.931203   -0.466225
     11          5           0        3.010295    2.202156    0.355221
     12          6           0        3.864967    2.275421   -0.968747
     13          1           0        3.371481    2.767089   -1.809825
     14          1           0        4.856989    2.714489   -0.815199
     15          1           0        4.045718    1.230256   -1.261755
     16          6           0        3.742082    1.809419    1.694473
     17          1           0        4.570036    1.108993    1.544460
     18          1           0        4.200466    2.736823    2.070409
     19          1           0        3.091780    1.439394    2.490989
     20          6           0        0.650422    5.535873   -1.622826
     21          6           0        2.542200    5.087270   -0.204020
     22          6           0        1.617966    6.712859   -1.678608
     23          1           0       -0.258845    5.822581   -1.073423
     24          1           0        0.347882    5.183798   -2.613221
     25          6           0        2.343198    6.596820   -0.337771
     26          1           0        3.484866    4.791046   -0.673731
     27          1           0        2.563558    4.752913    0.839165
     28          1           0        2.324727    6.585271   -2.504111
     29          1           0        1.101992    7.664313   -1.813925
     30          1           0        3.286358    7.143902   -0.302820
     31          1           0        1.701267    6.967528    0.467009
     32          7           0        1.391595    4.503076   -0.901905
 ---------------------------------------------------------------------

 SCF Done:  E(RwB97XD) =  -547.701728049     A.U. after   16 cycles

 Alpha  occ. eigenvalues --  -14.44592 -10.32772 -10.31440 -10.31393 -10.28665
 Alpha  occ. eigenvalues --  -10.28612 -10.28449 -10.28393 -10.27552 -10.27069
 Alpha  occ. eigenvalues --  -10.26112 -10.24649 -10.24464  -6.83919  -1.05967
 Alpha  occ. eigenvalues --   -0.95030  -0.89749  -0.85215  -0.83238  -0.81910
 Alpha  occ. eigenvalues --   -0.80073  -0.76863  -0.72315  -0.70734  -0.67184
 Alpha  occ. eigenvalues --   -0.66189  -0.62764  -0.59452  -0.57244  -0.54783
 Alpha  occ. eigenvalues --   -0.53685  -0.52072  -0.51240  -0.50785  -0.49631
 Alpha  occ. eigenvalues --   -0.49369  -0.48807  -0.48058  -0.46256  -0.45881
 Alpha  occ. eigenvalues --   -0.44756  -0.44508  -0.43402  -0.43293  -0.42308
 Alpha  occ. eigenvalues --   -0.41720  -0.39085  -0.37787  -0.36541  -0.32259
 Alpha  occ. eigenvalues --   -0.26575
 Alpha virt. eigenvalues --    0.03289   0.03906   0.04851   0.04914   0.05537
 Alpha virt. eigenvalues --    0.06238   0.06405   0.06751   0.06999   0.07272
 Alpha virt. eigenvalues --    0.08099   0.08403   0.08701   0.09336   0.09503

 Mulliken charges:
               1
     1  C   -0.537634
     2  C   -0.061152
     3  C    0.171000
     4  C    0.003527
     5  C   -0.020385
     6  C   -0.522572
     7  H    0.209609
     8  H    0.193240
     9  H    0.190172
    10  H    0.221079
    11  B    0.085976
    12  C   -0.710189
    13  H    0.203791
    14  H    0.167576
    15  H    0.197541
    16  C   -0.642460
    17  H    0.144896
    18  H    0.184556
    19  H    0.151394
    20  C   -0.063966
    21  C   -0.134060
    22  C   -0.663257
    23  H    0.157408
    24  H    0.201245
    25  C   -0.559114
    26  H    0.170566
    27  H    0.180585
    28  H    0.175828
    29  H    0.201641
    30  H    0.206858
    31  H    0.177763
    32  N    0.318538
 Sum of Mulliken charges =  -0.00000

 Dipole moment (field-independent basis, Debye):
    X=              0.5804    Y=              2.5888    Z=             -0.5739  Tot=              2.7144
 Quadrupole moment (field-independent basis, Debye-Ang):
   XX=            -82.2593   YY=            -62.0988   ZZ=            -88.0338
   XY=              6.3526   XZ=              1.2487   YZ=             -5.9801

 ESP charges:
               1
     1  C   -0.229735
     2  C   -0.022830
     3  C   -0.349708
     4  C    0.397881
     5  C   -0.303838
     6  C   -0.020427
     7  H    0.108218
     8  H    0.082678
     9  H    0.119264
    10  H    0.092548
    11  B    0.582559
    12  C   -0.480488
    13  H    0.066938
    14  H    0.096924
    15  H    0.091541
    16  C   -0.400361
    17  H    0.076651
    18  H    0.071977
    19  H    0.058682
    20  C    0.179930
    21  C    0.197650
    22  C   -0.073998
    23  H    0.003622
    24  H    0.001567
    25  C   -0.005353
    26  H    0.017689
    27  H   -0.037613
    28  H    0.044467
    29  H    0.023167
    30  H    0.002929
    31  H    0.028963
    32  N   -0.421494
 Sum of ESP charges =   0.00000

 Normal termination of Gaussian 16 at Wed Apr 10 14:32:21 2024.
