 Gaussian 16, Revision C.02,
 Gaussian 16:  AS64L-G16RevC.02  7-Dec-2021

 ----------------------------------------------------------------------
 # wb97xd/genecp scrf=(solvent=toluene,pcm) nosymm pop=(chelpg) scfcyc=
 300
 ----------------------------------------------------------------------

 ---------------------
 me_biphenylene_chelpg
 ---------------------
 Symbolic Z-matrix:
 Charge =  0 Multiplicity = 1

                          Input orientation:
 ---------------------------------------------------------------------
 Center     Atomic      Atomic             Coordinates (Angstroms)
 Number     Number       Type             X           Y           Z
 ---------------------------------------------------------------------
      1          6           0        1.894637    2.477796   -0.177752
      2          6           0        1.854418    2.552250   -1.592959
      3          6           0        1.555138    4.024907   -1.508883
      4          6           0        1.541245    3.946495   -0.099345
      5          6           0        1.370612    5.188826   -2.202502
      6          6           0        1.258188    5.039724    0.699716
      7          6           0        1.137798    6.324591   -1.398300
      8          1           0        1.398240    5.256092   -3.282736
      9          6           0        1.074310    6.256463   -0.017735
     10          1           0        0.981381    7.287163   -1.873384
     11          1           0        0.858510    7.166412    0.527612
     12          6           0        2.081817    1.472220   -2.393224
     13          1           0        2.063617    1.517064   -3.475824
     14          6           0        2.349186    0.256165   -1.714791
     15          1           0        2.528782   -0.643258   -2.293608
     16          6           0        2.393439    0.190584   -0.337123
     17          6           0        2.196105    1.324523    0.514657
     18          1           0        2.615864   -0.767807    0.121803
     19          5           0        2.435766    1.210676    2.061333
     20          7           0        1.167939    4.957687    2.089863
     21          6           0        3.229409    2.344112    2.803351
     22          1           0        3.066525    3.347752    2.400736
     23          1           0        3.076583    2.354824    3.886783
     24          1           0        4.293826    2.115320    2.637544
     25          6           0        1.946943   -0.053137    2.858484
     26          1           0        2.629611   -0.339508    3.664720
     27          1           0        1.012029    0.251261    3.354524
     28          1           0        1.706933   -0.930670    2.253291
     29          6           0        1.051010    6.189170    2.843306
     30          1           0        0.072701    6.680254    2.717274
     31          1           0        1.179619    5.960221    3.903020
     32          1           0        1.836753    6.888991    2.554253
     33          6           0        0.330919    3.891016    2.615981
     34          1           0        0.625187    3.663815    3.643269
     35          1           0       -0.733264    4.171588    2.606322
     36          1           0        0.441415    2.985015    2.021461
 ---------------------------------------------------------------------

 SCF Done:  E(RwB97XD) =  -700.035838799     A.U. after   16 cycles

 Alpha  occ. eigenvalues --  -14.45019 -10.33518 -10.31049 -10.30994 -10.30589
 Alpha  occ. eigenvalues --  -10.30294 -10.29959 -10.29539 -10.29466 -10.29424
 Alpha  occ. eigenvalues --  -10.29035 -10.28958 -10.28871 -10.28763 -10.27511
 Alpha  occ. eigenvalues --  -10.24986 -10.24372  -6.84344  -1.05641  -1.00724
 Alpha  occ. eigenvalues --   -0.94564  -0.90188  -0.86145  -0.84861  -0.82352
 Alpha  occ. eigenvalues --   -0.80542  -0.80062  -0.77117  -0.76457  -0.72446
 Alpha  occ. eigenvalues --   -0.71243  -0.66615  -0.64845  -0.62460  -0.58336
 Alpha  occ. eigenvalues --   -0.57512  -0.56285  -0.55935  -0.55319  -0.53640
 Alpha  occ. eigenvalues --   -0.53416  -0.51058  -0.50451  -0.50323  -0.49224
 Alpha  occ. eigenvalues --   -0.48973  -0.48349  -0.47720  -0.46831  -0.46293
 Alpha  occ. eigenvalues --   -0.46061  -0.45658  -0.44465  -0.44182  -0.42690
 Alpha  occ. eigenvalues --   -0.41631  -0.39234  -0.37927  -0.37695  -0.37046
 Alpha  occ. eigenvalues --   -0.33431  -0.28942  -0.26817
 Alpha virt. eigenvalues --    0.00556   0.01625   0.03794   0.04570   0.04696
 Alpha virt. eigenvalues --    0.05734   0.05871   0.06017   0.06663   0.07108
 Alpha virt. eigenvalues --    0.07531   0.07623   0.07793   0.08954   0.09261

 Mulliken charges:
               1
     1  C    0.280048
     2  C    0.040197
     3  C    0.233980
     4  C    0.107710
     5  C   -0.546660
     6  C   -0.160417
     7  C   -0.372078
     8  H    0.195043
     9  C   -0.186039
    10  H    0.235957
    11  H    0.193128
    12  C   -0.392499
    13  H    0.216127
    14  C   -0.467172
    15  H    0.230797
    16  C   -0.144543
    17  C    0.215533
    18  H    0.205854
    19  B   -0.017149
    20  N    0.198029
    21  C   -0.647329
    22  H    0.242348
    23  H    0.144192
    24  H    0.201459
    25  C   -0.649825
    26  H    0.147086
    27  H    0.191001
    28  H    0.152938
    29  C   -0.386475
    30  H    0.161979
    31  H    0.181405
    32  H    0.169228
    33  C   -0.458246
    34  H    0.182592
    35  H    0.206033
    36  H    0.095766
 Sum of Mulliken charges =  -0.00000

 Dipole moment (field-independent basis, Debye):
    X=             -0.8396    Y=              1.0546    Z=              1.3047  Tot=              1.8760
 Quadrupole moment (field-independent basis, Debye-Ang):
   XX=           -114.8071   YY=            -91.9223   ZZ=            -95.8896
   XY=             -5.0527   XZ=             -0.9139   YZ=              7.7615

 ESP charges:
               1
     1  C    0.180329
     2  C   -0.019496
     3  C    0.135064
     4  C   -0.232698
     5  C   -0.262114
     6  C    0.313243
     7  C   -0.041512
     8  H    0.141210
     9  C   -0.289052
    10  H    0.101772
    11  H    0.136531
    12  C   -0.135303
    13  H    0.121381
    14  C   -0.123462
    15  H    0.100957
    16  C   -0.109896
    17  C   -0.271839
    18  H    0.090321
    19  B    0.628794
    20  N   -0.180098
    21  C   -0.364733
    22  H   -0.005163
    23  H    0.076399
    24  H    0.053274
    25  C   -0.483186
    26  H    0.086708
    27  H    0.084340
    28  H    0.091711
    29  C   -0.161938
    30  H    0.066279
    31  H    0.085014
    32  H    0.077508
    33  C    0.121516
    34  H    0.040664
    35  H   -0.011626
    36  H   -0.040895
 Sum of ESP charges =  -0.00000

 Normal termination of Gaussian 16 at Wed Apr 10 14:44:46 2024.
