 Gaussian 16, Revision C.02,
 Gaussian 16:  AS64L-G16RevC.02  7-Dec-2021

 ----------------------------------------------------------------------
 # wb97xd/genecp scrf=(solvent=toluene,pcm) nosymm pop=(chelpg) scfcyc=
 300
 ----------------------------------------------------------------------

 -------------------
 me_cinnoline_chelpg
 -------------------
 Symbolic Z-matrix:
 Charge =  0 Multiplicity = 1

                          Input orientation:
 ---------------------------------------------------------------------
 Center     Atomic      Atomic             Coordinates (Angstroms)
 Number     Number       Type             X           Y           Z
 ---------------------------------------------------------------------
      1          6           0       -3.991718    0.023547    0.655276
      2          6           0       -2.695254    0.025623    0.202710
      3          6           0       -2.116237    1.287498   -0.118594
      4          6           0       -2.838509    2.493612    0.036354
      5          6           0       -4.168050    2.441583    0.525835
      6          6           0       -4.722936    1.228473    0.823900
      7          1           0       -4.482071   -0.913640    0.900803
      8          6           0       -2.153843    3.664901   -0.327217
      9          1           0       -4.727567    3.362162    0.650058
     10          1           0       -5.741376    1.178295    1.193206
     11          6           0       -0.872413    3.538750   -0.794372
     12          1           0       -2.625108    4.638046   -0.244162
     13          1           0       -0.285108    4.398529   -1.093401
     14          7           0       -0.842062    1.255368   -0.598750
     15          5           0       -1.798765   -1.266441    0.032768
     16          6           0       -0.771356   -1.636598    1.156824
     17          1           0        0.079000   -2.213667    0.782867
     18          1           0       -0.411939   -0.782007    1.733866
     19          1           0       -1.309173   -2.295261    1.857271
     20          6           0       -2.025132   -2.179811   -1.221375
     21          1           0       -3.076323   -2.250015   -1.518051
     22          1           0       -1.511760   -1.677764   -2.055085
     23          1           0       -1.597061   -3.181455   -1.132420
     24          7           0       -0.234661    2.348223   -0.926301
 ---------------------------------------------------------------------

 SCF Done:  E(RwB97XD) =  -521.978107139     A.U. after   16 cycles

 Alpha  occ. eigenvalues --  -14.47826 -14.47643 -10.33607 -10.33005 -10.32474
 Alpha  occ. eigenvalues --  -10.32070 -10.30923 -10.30588 -10.30420 -10.28935
 Alpha  occ. eigenvalues --  -10.25070 -10.24919  -6.85366  -1.14036  -0.98484
 Alpha  occ. eigenvalues --   -0.93942  -0.89984  -0.86265  -0.80778  -0.77600
 Alpha  occ. eigenvalues --   -0.77449  -0.75505  -0.71464  -0.64498  -0.62616
 Alpha  occ. eigenvalues --   -0.60608  -0.56586  -0.55033  -0.54105  -0.53057
 Alpha  occ. eigenvalues --   -0.51609  -0.50601  -0.48952  -0.48010  -0.47623
 Alpha  occ. eigenvalues --   -0.46997  -0.46359  -0.45769  -0.41776  -0.41460
 Alpha  occ. eigenvalues --   -0.39180  -0.38887  -0.35517  -0.32514  -0.31740
 Alpha virt. eigenvalues --   -0.01724   0.02294   0.03723   0.04505   0.05010
 Alpha virt. eigenvalues --    0.05150   0.06235   0.06449   0.06940   0.07131
 Alpha virt. eigenvalues --    0.07676   0.08868   0.09096   0.09572   0.09764

 Mulliken charges:
               1
     1  C   -0.054852
     2  C    0.152711
     3  C   -1.043834
     4  C    0.665951
     5  C   -0.495789
     6  C   -0.330989
     7  H    0.240641
     8  C    0.664040
     9  H    0.200742
    10  H    0.246727
    11  C   -0.644135
    12  H    0.261423
    13  H    0.248959
    14  N    0.151034
    15  B    0.138026
    16  C   -0.694657
    17  H    0.154646
    18  H    0.191967
    19  H    0.181728
    20  C   -0.682330
    21  H    0.170936
    22  H    0.206085
    23  H    0.137175
    24  N   -0.066202
 Sum of Mulliken charges =  -0.00000

 Dipole moment (field-independent basis, Debye):
    X=             -4.0505    Y=              1.4287    Z=              1.3450  Tot=              4.5007
 Quadrupole moment (field-independent basis, Debye-Ang):
   XX=            -61.3603   YY=            -60.3612   ZZ=            -80.0363
   XY=             -8.0775   XZ=             -3.2632   YZ=             -0.1781

 ESP charges:
               1
     1  C   -0.081847
     2  C   -0.328173
     3  C    0.399166
     4  C    0.215347
     5  C   -0.293295
     6  C   -0.081496
     7  H    0.107329
     8  C   -0.360606
     9  H    0.166579
    10  H    0.119981
    11  C    0.429338
    12  H    0.160447
    13  H   -0.005280
    14  N   -0.233958
    15  B    0.679626
    16  C   -0.667882
    17  H    0.134267
    18  H    0.133822
    19  H    0.145498
    20  C   -0.436862
    21  H    0.070560
    22  H    0.069631
    23  H    0.093948
    24  N   -0.436139
 Sum of ESP charges =   0.00000

 Normal termination of Gaussian 16 at Wed Apr 10 14:34:46 2024.
