 Gaussian 16, Revision C.02,
 Gaussian 16:  AS64L-G16RevC.02  7-Dec-2021

 ----------------------------------------------------------------------
 # wb97xd/genecp scrf=(solvent=toluene,pcm) nosymm pop=(chelpg) scfcyc=
 300
 ----------------------------------------------------------------------

 -------------------------
 me_dimethylaniline_chelpg
 -------------------------
 Symbolic Z-matrix:
 Charge =  0 Multiplicity = 1

                          Input orientation:
 ---------------------------------------------------------------------
 Center     Atomic      Atomic             Coordinates (Angstroms)
 Number     Number       Type             X           Y           Z
 ---------------------------------------------------------------------
      1          6           0       -0.664978    0.914250    0.760120
      2          6           0        0.711347    1.071497    0.867911
      3          6           0        1.382688    2.209278    0.398608
      4          6           0        0.596768    3.272198   -0.119459
      5          6           0       -0.791463    3.109306   -0.232511
      6          6           0       -1.408137    1.938751    0.190286
      7          1           0       -1.146392    0.008043    1.108922
      8          1           0        1.295528    0.261068    1.293351
      9          1           0       -1.405398    3.907193   -0.629976
     10          1           0       -2.484688    1.843518    0.093526
     11          7           0        1.210831    4.462845   -0.517390
     12          5           0        2.941217    2.095318    0.280240
     13          6           0        2.141516    5.115714    0.388801
     14          1           0        2.522605    4.412386    1.127632
     15          1           0        2.991182    5.530753   -0.161609
     16          1           0        1.646785    5.934521    0.932928
     17          6           0        0.450953    5.412415   -1.301467
     18          1           0       -0.049160    4.910938   -2.131578
     19          1           0       -0.302378    5.956702   -0.708770
     20          1           0        1.141173    6.148042   -1.720704
     21          6           0        3.736758    2.677009   -0.952249
     22          1           0        3.114554    3.097282   -1.743810
     23          1           0        4.420522    3.464484   -0.608134
     24          1           0        4.384098    1.896668   -1.371191
     25          6           0        3.760943    1.255249    1.338909
     26          1           0        3.909831    0.244598    0.931832
     27          1           0        4.767060    1.662230    1.484134
     28          1           0        3.279433    1.143484    2.313703
 ---------------------------------------------------------------------

 SCF Done:  E(RwB97XD) =  -470.278103138     A.U. after   17 cycles

 Alpha  occ. eigenvalues --  -14.44479 -10.32763 -10.30949 -10.30751 -10.28887
 Alpha  occ. eigenvalues --  -10.28680 -10.27962 -10.27622 -10.26350 -10.24587
 Alpha  occ. eigenvalues --  -10.24181  -6.83921  -1.05008  -0.94723  -0.85057
 Alpha  occ. eigenvalues --   -0.84595  -0.81507  -0.80126  -0.76624  -0.75213
 Alpha  occ. eigenvalues --   -0.69438  -0.66889  -0.61883  -0.56810  -0.56353
 Alpha  occ. eigenvalues --   -0.55782  -0.53811  -0.51788  -0.51155  -0.50000
 Alpha  occ. eigenvalues --   -0.49159  -0.48748  -0.47329  -0.46437  -0.46040
 Alpha  occ. eigenvalues --   -0.45424  -0.45149  -0.44797  -0.42939  -0.38803
 Alpha  occ. eigenvalues --   -0.38227  -0.35990  -0.32751  -0.27323
 Alpha virt. eigenvalues --    0.02261   0.03818   0.04853   0.04992   0.05819
 Alpha virt. eigenvalues --    0.06478   0.06488   0.06653   0.07563   0.07926
 Alpha virt. eigenvalues --    0.08606   0.08823   0.08962   0.09679   0.10269

 Mulliken charges:
               1
     1  C   -0.411035
     2  C    0.253531
     3  C    0.465711
     4  C   -0.933709
     5  C   -0.061405
     6  C   -0.342800
     7  H    0.212218
     8  H    0.215842
     9  H    0.181672
    10  H    0.226776
    11  N    0.256072
    12  B    0.082507
    13  C   -0.493879
    14  H    0.187840
    15  H    0.203213
    16  H    0.164391
    17  C   -0.418971
    18  H    0.167636
    19  H    0.173880
    20  H    0.175082
    21  C   -0.658018
    22  H    0.203401
    23  H    0.156911
    24  H    0.173860
    25  C   -0.693666
    26  H    0.186711
    27  H    0.172151
    28  H    0.154079
 Sum of Mulliken charges =  -0.00000

 Dipole moment (field-independent basis, Debye):
    X=             -0.1001    Y=              1.7181    Z=             -0.2102  Tot=              1.7338
 Quadrupole moment (field-independent basis, Debye-Ang):
   XX=            -72.1547   YY=            -58.1983   ZZ=            -77.5350
   XY=              2.0792   XZ=              1.7829   YZ=             -2.9663

 ESP charges:
               1
     1  C   -0.193525
     2  C   -0.023621
     3  C   -0.350311
     4  C    0.337865
     5  C   -0.255276
     6  C   -0.048346
     7  H    0.105703
     8  H    0.081413
     9  H    0.120559
    10  H    0.096963
    11  N   -0.221801
    12  B    0.545928
    13  C    0.029977
    14  H    0.007161
    15  H    0.052827
    16  H    0.018646
    17  C   -0.125423
    18  H    0.064449
    19  H    0.060514
    20  H    0.084636
    21  C   -0.417860
    22  H    0.036623
    23  H    0.090946
    24  H    0.071099
    25  C   -0.310986
    26  H    0.063033
    27  H    0.044652
    28  H    0.034153
 Sum of ESP charges =  -0.00000

 Normal termination of Gaussian 16 at Tue Apr  9 18:43:54 2024.
