 Gaussian 16, Revision C.02,
 Gaussian 16:  AS64L-G16RevC.02  7-Dec-2021

 ----------------------------------------------------------------------
 # wb97xd/genecp scrf=(solvent=toluene,pcm) nosymm pop=(chelpg) scfcyc=
 300
 ----------------------------------------------------------------------

 ----------------------
 me_dibenzofuran_chelpg
 ----------------------
 Symbolic Z-matrix:
 Charge =  0 Multiplicity = 1

                          Input orientation:
 ---------------------------------------------------------------------
 Center     Atomic      Atomic             Coordinates (Angstroms)
 Number     Number       Type             X           Y           Z
 ---------------------------------------------------------------------
      1          6           0        2.109972    2.162747    0.187193
      2          6           0        1.919787    2.540093   -1.146369
      3          8           0        1.624832    3.119646    1.032500
      4          6           0        1.268111    3.835059   -1.105336
      5          6           0        1.124667    4.126004    0.248452
      6          6           0        0.779336    4.716211   -2.071227
      7          6           0        0.509182    5.288072    0.736152
      8          6           0        0.159267    5.867758   -1.622549
      9          1           0        0.874173    4.500830   -3.128609
     10          6           0        0.032257    6.150934   -0.256311
     11          1           0       -0.236402    6.580246   -2.337560
     12          1           0       -0.452361    7.074309    0.032445
     13          6           0        2.341681    1.689351   -2.163346
     14          1           0        2.210334    1.961143   -3.204778
     15          6           0        2.930889    0.483200   -1.809987
     16          1           0        3.268278   -0.198043   -2.582546
     17          6           0        3.087554    0.132828   -0.467126
     18          6           0        2.693164    0.960066    0.596692
     19          1           0        3.548817   -0.821658   -0.238066
     20          5           0        2.950884    0.552905    2.091744
     21          7           0        0.348092    5.511094    2.108420
     22          6           0        2.918526    1.630305    3.238627
     23          1           0        1.873090    1.919061    3.414125
     24          1           0        3.326479    1.264861    4.184782
     25          1           0        3.430087    2.556512    2.959472
     26          6           0        3.283614   -0.938797    2.469823
     27          1           0        4.365286   -0.999685    2.660740
     28          1           0        2.808044   -1.213063    3.417604
     29          1           0        3.037031   -1.695899    1.722511
     30          6           0        1.553262    5.430000    2.926902
     31          1           0        2.204123    6.305707    2.778056
     32          1           0        1.264949    5.388675    3.979356
     33          1           0        2.115435    4.528777    2.695858
     34          6           0       -0.506138    6.616980    2.492886
     35          1           0       -0.679566    6.561888    3.569136
     36          1           0       -0.064700    7.602114    2.269531
     37          1           0       -1.472276    6.543133    1.990479
 ---------------------------------------------------------------------

 SCF Done:  E(RwB97XD) =  -775.331189489     A.U. after   16 cycles

 Alpha  occ. eigenvalues --  -19.31364 -14.44876 -10.35342 -10.34709 -10.33514
 Alpha  occ. eigenvalues --  -10.30754 -10.30316 -10.30298 -10.30092 -10.30047
 Alpha  occ. eigenvalues --  -10.29743 -10.29032 -10.28977 -10.28901 -10.28819
 Alpha  occ. eigenvalues --  -10.27894 -10.24921 -10.24552  -6.84596  -1.22232
 Alpha  occ. eigenvalues --   -1.05248  -0.97198  -0.95891  -0.89060  -0.86837
 Alpha  occ. eigenvalues --   -0.84356  -0.83531  -0.81274  -0.80492  -0.77237
 Alpha  occ. eigenvalues --   -0.76309  -0.73367  -0.71892  -0.69358  -0.66451
 Alpha  occ. eigenvalues --   -0.62741  -0.61492  -0.59841  -0.57569  -0.56771
 Alpha  occ. eigenvalues --   -0.55593  -0.55100  -0.54779  -0.54146  -0.52539
 Alpha  occ. eigenvalues --   -0.51437  -0.51108  -0.49164  -0.48992  -0.48517
 Alpha  occ. eigenvalues --   -0.47664  -0.47113  -0.46310  -0.46224  -0.45561
 Alpha  occ. eigenvalues --   -0.45390  -0.45186  -0.44721  -0.44649  -0.43056
 Alpha  occ. eigenvalues --   -0.39093  -0.38812  -0.38241  -0.35632  -0.32236
 Alpha  occ. eigenvalues --   -0.30139  -0.27741
 Alpha virt. eigenvalues --    0.00337   0.03810   0.04191   0.04488   0.04725
 Alpha virt. eigenvalues --    0.05770   0.05801   0.06141   0.06679   0.07221
 Alpha virt. eigenvalues --    0.07350   0.07484   0.07530   0.08118   0.08898

 Mulliken charges:
               1
     1  C   -0.434671
     2  C    0.908955
     3  O    0.017582
     4  C    0.932934
     5  C   -0.588665
     6  C   -0.610482
     7  C   -0.408583
     8  C   -0.414473
     9  H    0.168535
    10  C    0.148137
    11  H    0.236121
    12  H    0.188111
    13  C   -0.394983
    14  H    0.202166
    15  C   -0.601948
    16  H    0.236842
    17  C    0.002350
    18  C    0.027573
    19  H    0.194303
    20  B    0.297674
    21  N    0.102349
    22  C   -0.659130
    23  H    0.178991
    24  H    0.162294
    25  H    0.149036
    26  C   -0.701222
    27  H    0.193538
    28  H    0.173165
    29  H    0.137540
    30  C   -0.460292
    31  H    0.174033
    32  H    0.163151
    33  H    0.137274
    34  C   -0.364638
    35  H    0.184413
    36  H    0.160379
    37  H    0.161643
 Sum of Mulliken charges =  -0.00000

 Dipole moment (field-independent basis, Debye):
    X=              0.0585    Y=              1.0437    Z=              0.1455  Tot=              1.0554
 Quadrupole moment (field-independent basis, Debye-Ang):
   XX=           -113.9729   YY=            -97.1094   ZZ=           -102.6258
   XY=             -5.9833   XZ=             -0.7123   YZ=              5.8654

 ESP charges:
               1
     1  C    0.346161
     2  C   -0.049212
     3  O   -0.270730
     4  C    0.088809
     5  C   -0.008712
     6  C   -0.242035
     7  C    0.351517
     8  C   -0.117208
     9  H    0.143299
    10  C   -0.264123
    11  H    0.114714
    12  H    0.148172
    13  C   -0.111875
    14  H    0.128302
    15  C   -0.175286
    16  H    0.111074
    17  C   -0.038316
    18  C   -0.360085
    19  H    0.099726
    20  B    0.600630
    21  N   -0.403122
    22  C   -0.380374
    23  H    0.069860
    24  H    0.065039
    25  H    0.048843
    26  C   -0.473788
    27  H    0.094982
    28  H    0.090569
    29  H    0.081547
    30  C    0.099723
    31  H   -0.004385
    32  H    0.044063
    33  H    0.046830
    34  C   -0.076943
    35  H    0.090785
    36  H    0.053376
    37  H    0.058173
 Sum of ESP charges =  -0.00000

 Normal termination of Gaussian 16 at Wed Apr 10 15:27:05 2024.
