 Gaussian 16, Revision C.02,
 Gaussian 16:  AS64L-G16RevC.02  7-Dec-2021

 ----------------------------------------------------------------------
 # wb97xd/genecp scrf=(solvent=toluene,pcm) nosymm pop=(chelpg) scfcyc=
 300
 ----------------------------------------------------------------------

 ------------------
 me_indenoPy_chelpg
 ------------------
 Symbolic Z-matrix:
 Charge =  0 Multiplicity = 1

                          Input orientation:
 ---------------------------------------------------------------------
 Center     Atomic      Atomic             Coordinates (Angstroms)
 Number     Number       Type             X           Y           Z
 ---------------------------------------------------------------------
      1          6           0        0.673552    0.721495   -0.456768
      2          6           0        1.818430    0.736988    0.343420
      3          6           0        2.200871    1.823349    1.129644
      4          6           0        1.353581    2.935085    1.076090
      5          6           0        0.204608    2.939550    0.281978
      6          6           0       -0.149757    1.835927   -0.492910
      7          1           0        1.583774    3.820940    1.661028
      8          1           0       -0.425376    3.822736    0.269213
      9          1           0       -1.046158    1.857015   -1.103561
     10          6           0        0.556218   -0.608335   -1.174298
     11          1           0        0.563361   -0.485066   -2.261914
     12          1           0       -0.370314   -1.129826   -0.914011
     13          6           0        2.497326   -0.546272    0.199733
     14          6           0        1.774798   -1.355379   -0.687407
     15          6           0        4.079393   -2.116420    0.546219
     16          6           0        2.260895   -2.619727   -0.954311
     17          6           0        3.443790   -3.002359   -0.317329
     18          1           0        4.999066   -2.406311    1.045269
     19          1           0        1.751368   -3.297784   -1.630975
     20          1           0        3.872503   -3.982353   -0.487942
     21          7           0        3.622373   -0.888459    0.815874
     22          5           0        3.517046    1.739344    2.002910
     23          6           0        3.389580    1.301827    3.506430
     24          1           0        4.336892    1.009419    3.965928
     25          1           0        3.011673    2.175392    4.060179
     26          1           0        2.651180    0.508822    3.653402
     27          6           0        4.853904    2.299702    1.397089
     28          1           0        4.804199    3.396833    1.476416
     29          1           0        5.752375    1.974636    1.927323
     30          1           0        4.957969    2.078527    0.331263
 ---------------------------------------------------------------------

 SCF Done:  E(RwB97XD) =  -621.499086691     A.U. after   15 cycles

 Alpha  occ. eigenvalues --  -14.43811 -10.32597 -10.32541 -10.31100 -10.30495
 Alpha  occ. eigenvalues --  -10.30323 -10.29911 -10.29840 -10.29058 -10.28887
 Alpha  occ. eigenvalues --  -10.28881 -10.28779 -10.27526 -10.24385 -10.24376
 Alpha  occ. eigenvalues --   -6.84515  -1.06193  -0.98172  -0.93089  -0.90274
 Alpha  occ. eigenvalues --   -0.86275  -0.82875  -0.80565  -0.79653  -0.76812
 Alpha  occ. eigenvalues --   -0.74737  -0.70890  -0.68559  -0.67871  -0.61854
 Alpha  occ. eigenvalues --   -0.59423  -0.58191  -0.55030  -0.54924  -0.53417
 Alpha  occ. eigenvalues --   -0.52615  -0.51290  -0.49882  -0.49743  -0.49130
 Alpha  occ. eigenvalues --   -0.49017  -0.47716  -0.47643  -0.45931  -0.45662
 Alpha  occ. eigenvalues --   -0.44799  -0.44573  -0.43128  -0.39428  -0.38036
 Alpha  occ. eigenvalues --   -0.37690  -0.36008  -0.35035  -0.32068  -0.29907
 Alpha virt. eigenvalues --    0.01314   0.03478   0.03846   0.04495   0.04849
 Alpha virt. eigenvalues --    0.05727   0.05930   0.06005   0.06512   0.06836
 Alpha virt. eigenvalues --    0.07513   0.07554   0.07804   0.08089   0.09126

 Mulliken charges:
               1
     1  C    0.061963
     2  C    0.130117
     3  C    0.228429
     4  C   -0.244638
     5  C   -0.238428
     6  C   -0.238449
     7  H    0.246531
     8  H    0.221016
     9  H    0.215533
    10  C   -0.456677
    11  H    0.223508
    12  H    0.223626
    13  C   -0.956915
    14  C   -0.055512
    15  C    0.278213
    16  C    0.363614
    17  C   -0.499484
    18  H    0.246526
    19  H    0.240284
    20  H    0.239435
    21  N    0.122845
    22  B   -0.124268
    23  C   -0.650376
    24  H    0.155606
    25  H    0.185562
    26  H    0.196472
    27  C   -0.652166
    28  H    0.185570
    29  H    0.155504
    30  H    0.196560
 Sum of Mulliken charges =  -0.00000

 Dipole moment (field-independent basis, Debye):
    X=             -1.4683    Y=             -1.6332    Z=             -1.7923  Tot=              2.8347
 Quadrupole moment (field-independent basis, Debye-Ang):
   XX=            -97.7550   YY=            -83.3519   ZZ=            -95.0441
   XY=             -6.8552   XZ=              0.0567   YZ=              5.2183

 ESP charges:
               1
     1  C    0.081999
     2  C   -0.176399
     3  C   -0.012074
     4  C   -0.233031
     5  C   -0.016308
     6  C   -0.227407
     7  H    0.109290
     8  H    0.085632
     9  H    0.120402
    10  C    0.034907
    11  H    0.040798
    12  H    0.041046
    13  C    0.423610
    14  C   -0.163628
    15  C    0.239894
    16  C    0.023210
    17  C   -0.285633
    18  H    0.054012
    19  H    0.104238
    20  H    0.130291
    21  N   -0.512855
    22  B    0.601780
    23  C   -0.488232
    24  H    0.099417
    25  H    0.098345
    26  H    0.061288
    27  C   -0.513120
    28  H    0.104020
    29  H    0.105915
    30  H    0.068592
 Sum of ESP charges =  -0.00000

 Normal termination of Gaussian 16 at Wed Apr 10 14:39:13 2024.
