 Gaussian 16, Revision C.02,
 Gaussian 16:  AS64L-G16RevC.02  7-Dec-2021

 ----------------------------------------------------------------------
 # wb97xd/genecp scrf=(solvent=toluene,pcm) nosymm pop=(chelpg) scfcyc=
 300
 ----------------------------------------------------------------------

 ----------------
 me_indole_chelpg
 ----------------
 Symbolic Z-matrix:
 Charge =  0 Multiplicity = 1

                          Input orientation:
 ---------------------------------------------------------------------
 Center     Atomic      Atomic             Coordinates (Angstroms)
 Number     Number       Type             X           Y           Z
 ---------------------------------------------------------------------
      1          6           0       -1.113130   -1.238193   -0.215190
      2          6           0       -2.493862   -1.267391   -0.131970
      3          6           0       -1.835693    0.900828   -0.158409
      4          6           0       -1.944848    2.300921   -0.148937
      5          6           0       -3.203280    2.864040   -0.059713
      6          6           0       -4.347493    2.030496    0.017744
      7          6           0       -4.246471    0.658374    0.008167
      8          6           0       -2.973739    0.068889   -0.082715
      9          1           0       -1.066543    2.935628   -0.196445
     10          1           0       -5.325225    2.496891    0.088040
     11          1           0       -5.134980    0.038848    0.068410
     12          7           0       -0.726167    0.106536   -0.238792
     13          1           0       -3.093156   -2.164340   -0.090258
     14          5           0       -0.203052   -2.489530   -0.115804
     15          6           0        0.617162    0.625089   -0.388446
     16          1           0        1.094002    0.798774    0.580633
     17          1           0        1.223097   -0.071935   -0.962539
     18          1           0        0.582067    1.567653   -0.936278
     19          6           0        1.341035   -2.432120    0.216963
     20          1           0        1.898028   -2.302025   -0.722464
     21          1           0        1.639348   -1.611012    0.873128
     22          1           0        1.694912   -3.372285    0.650397
     23          6           0       -0.838882   -3.919534   -0.313996
     24          1           0       -0.846018   -4.436671    0.655265
     25          1           0       -1.852697   -3.944223   -0.717562
     26          1           0       -0.195216   -4.528874   -0.959905
     27          6           0       -3.381719    4.360000   -0.038035
     28          1           0       -3.878268    4.681037    0.882400
     29          1           0       -2.422994    4.878103   -0.103356
     30          1           0       -4.003330    4.690924   -0.875250
 ---------------------------------------------------------------------

 SCF Done:  E(RwB97XD) =  -546.507373789     A.U. after   16 cycles

 Alpha  occ. eigenvalues --  -14.47709 -10.32012 -10.31741 -10.29735 -10.29272
 Alpha  occ. eigenvalues --  -10.28807 -10.28499 -10.28032 -10.27781 -10.27769
 Alpha  occ. eigenvalues --  -10.27740 -10.25126 -10.24686  -6.84266  -1.08887
 Alpha  occ. eigenvalues --   -0.95464  -0.90680  -0.85221  -0.84836  -0.81089
 Alpha  occ. eigenvalues --   -0.78712  -0.77258  -0.76792  -0.70473  -0.67664
 Alpha  occ. eigenvalues --   -0.65215  -0.61237  -0.57392  -0.55856  -0.55708
 Alpha  occ. eigenvalues --   -0.53621  -0.52492  -0.51294  -0.50762  -0.50272
 Alpha  occ. eigenvalues --   -0.49075  -0.48043  -0.47887  -0.47624  -0.46447
 Alpha  occ. eigenvalues --   -0.46178  -0.45749  -0.43899  -0.41607  -0.40880
 Alpha  occ. eigenvalues --   -0.39905  -0.38953  -0.35972  -0.29512  -0.28031
 Alpha virt. eigenvalues --    0.01046   0.03888   0.04673   0.04910   0.05975
 Alpha virt. eigenvalues --    0.06103   0.06368   0.07066   0.07436   0.07907
 Alpha virt. eigenvalues --    0.08060   0.08140   0.08514   0.09622   0.09768

 Mulliken charges:
               1
     1  C    0.004074
     2  C    0.647710
     3  C   -1.521509
     4  C   -1.328946
     5  C    0.381679
     6  C   -0.402528
     7  C   -0.286244
     8  C    1.142461
     9  H    0.154332
    10  H    0.197522
    11  H    0.205253
    12  N    0.352862
    13  H    0.202142
    14  B    0.487323
    15  C   -0.498430
    16  H    0.229156
    17  H    0.146557
    18  H    0.162231
    19  C   -0.679762
    20  H    0.177747
    21  H    0.148210
    22  H    0.162901
    23  C   -0.667256
    24  H    0.173203
    25  H    0.135498
    26  H    0.166026
    27  C   -0.435493
    28  H    0.183601
    29  H    0.176978
    30  H    0.182701
 Sum of Mulliken charges =  -0.00000

 Dipole moment (field-independent basis, Debye):
    X=              1.7093    Y=              1.0038    Z=             -0.1558  Tot=              1.9884
 Quadrupole moment (field-independent basis, Debye-Ang):
   XX=            -83.0487   YY=            -79.3995   ZZ=            -89.0266
   XY=             -0.7637   XZ=             -1.6403   YZ=             -0.5187

 ESP charges:
               1
     1  C   -0.228687
     2  C   -0.345272
     3  C    0.170003
     4  C   -0.378500
     5  C    0.215500
     6  C   -0.236733
     7  C   -0.226099
     8  C    0.165119
     9  H    0.168644
    10  H    0.132796
    11  H    0.140571
    12  N   -0.052384
    13  H    0.181593
    14  B    0.595616
    15  C   -0.066336
    16  H    0.066937
    17  H    0.070242
    18  H    0.062082
    19  C   -0.425657
    20  H    0.089718
    21  H    0.068613
    22  H    0.076355
    23  C   -0.478438
    24  H    0.095423
    25  H    0.077934
    26  H    0.090426
    27  C   -0.241263
    28  H    0.067526
    29  H    0.073930
    30  H    0.070341
 Sum of ESP charges =  -0.00000

 Normal termination of Gaussian 16 at Wed Apr 10 15:26:19 2024.
