 Gaussian 16, Revision C.02,
 Gaussian 16:  AS64L-G16RevC.02  7-Dec-2021

 ----------------------------------------------------------------------
 # wb97xd/genecp scrf=(solvent=toluene,pcm) nosymm pop=(chelpg) scfcyc=
 300
 ----------------------------------------------------------------------

 -------------------------
 me_mequinolinamine_chelpg
 -------------------------
 Symbolic Z-matrix:
 Charge =  0 Multiplicity = 1

                          Input orientation:
 ---------------------------------------------------------------------
 Center     Atomic      Atomic             Coordinates (Angstroms)
 Number     Number       Type             X           Y           Z
 ---------------------------------------------------------------------
      1          6           0       -3.987825    1.073813   -0.221124
      2          6           0       -2.683334    0.630739   -0.216242
      3          6           0       -1.639892    1.586165   -0.022571
      4          6           0       -1.977777    2.950656    0.183757
      5          6           0       -3.329917    3.349815    0.208876
      6          6           0       -4.342833    2.432160    0.013688
      7          1           0       -4.781883    0.356140   -0.396268
      8          6           0       -0.911268    3.869942    0.348801
      9          1           0       -3.566872    4.396484    0.378574
     10          6           0        0.377621    3.420368    0.297468
     11          6           0        0.608301    2.043478    0.075316
     12          1           0       -1.132089    4.920592    0.509457
     13          1           0        1.216800    4.095064    0.418203
     14          1           0        1.628405    1.670258    0.025132
     15          7           0       -0.346867    1.161059   -0.081664
     16          5           0       -2.416404   -0.917525   -0.344925
     17          6           0       -1.413701   -1.666161    0.602313
     18          1           0       -0.483547   -1.792557    0.031029
     19          1           0       -1.147801   -1.119410    1.508799
     20          1           0       -1.761862   -2.672751    0.858683
     21          6           0       -3.258020   -1.756446   -1.380669
     22          1           0       -4.146824   -2.126618   -0.846594
     23          1           0       -3.616534   -1.190737   -2.244174
     24          1           0       -2.727399   -2.649382   -1.724638
     25          7           0       -5.670782    2.816343    0.070869
     26          1           0       -5.819445    3.808590   -0.011429
     27          6           0       -6.733289    1.994624   -0.471466
     28          1           0       -6.862701    1.082762    0.117859
     29          1           0       -7.666343    2.555125   -0.413893
     30          1           0       -6.563139    1.709757   -1.518434
 ---------------------------------------------------------------------

 SCF Done:  E(RwB97XD) =  -600.639030619     A.U. after   17 cycles

 Alpha  occ. eigenvalues --  -14.44695 -14.42672 -10.33486 -10.31766 -10.31735
 Alpha  occ. eigenvalues --  -10.31497 -10.30286 -10.30235 -10.29339 -10.29185
 Alpha  occ. eigenvalues --  -10.28382 -10.27426 -10.24719 -10.23902  -6.84250
 Alpha  occ. eigenvalues --   -1.04993  -1.04229  -0.94352  -0.90858  -0.85048
 Alpha  occ. eigenvalues --   -0.84823  -0.80198  -0.78389  -0.76589  -0.74098
 Alpha  occ. eigenvalues --   -0.71276  -0.70023  -0.62887  -0.61926  -0.60684
 Alpha  occ. eigenvalues --   -0.56672  -0.55689  -0.53703  -0.53531  -0.51076
 Alpha  occ. eigenvalues --   -0.50726  -0.50365  -0.50264  -0.49178  -0.48359
 Alpha  occ. eigenvalues --   -0.48114  -0.46386  -0.46048  -0.45649  -0.44545
 Alpha  occ. eigenvalues --   -0.43793  -0.39857  -0.38753  -0.38109  -0.36856
 Alpha  occ. eigenvalues --   -0.33623  -0.31548  -0.27189
 Alpha virt. eigenvalues --    0.00246   0.03747   0.04494   0.04616   0.04720
 Alpha virt. eigenvalues --    0.05321   0.05935   0.06165   0.06527   0.07352
 Alpha virt. eigenvalues --    0.07941   0.08166   0.08509   0.09247   0.09794

 Mulliken charges:
               1
     1  C    0.292816
     2  C    0.450479
     3  C   -1.654180
     4  C    1.280633
     5  C   -0.736674
     6  C   -0.669213
     7  H    0.252370
     8  C    0.462358
     9  H    0.191371
    10  C   -0.794443
    11  C    0.067759
    12  H    0.224650
    13  H    0.232612
    14  H    0.239467
    15  N    0.141883
    16  B    0.308550
    17  C   -0.734316
    18  H    0.167679
    19  H    0.180926
    20  H    0.139649
    21  C   -0.731748
    22  H    0.169326
    23  H    0.163299
    24  H    0.159765
    25  N   -0.144358
    26  H    0.287473
    27  C   -0.495840
    28  H    0.169777
    29  H    0.194810
    30  H    0.183120
 Sum of Mulliken charges =  -0.00000

 Dipole moment (field-independent basis, Debye):
    X=             -2.8528    Y=              2.6604    Z=             -0.4282  Tot=              3.9243
 Quadrupole moment (field-independent basis, Debye-Ang):
   XX=            -59.9365   YY=            -73.2058   ZZ=            -95.3093
   XY=             -9.7583   XZ=              4.2611   YZ=              0.1049

 ESP charges:
               1
     1  C   -0.173784
     2  C   -0.418762
     3  C    0.479029
     4  C    0.043256
     5  C   -0.458700
     6  C    0.444138
     7  H    0.150972
     8  C   -0.052188
     9  H    0.169991
    10  C   -0.279919
    11  C    0.298705
    12  H    0.116364
    13  H    0.128953
    14  H    0.037925
    15  N   -0.604930
    16  B    0.704466
    17  C   -0.515750
    18  H    0.104186
    19  H    0.091719
    20  H    0.084259
    21  C   -0.482906
    22  H    0.092543
    23  H    0.069314
    24  H    0.093583
    25  N   -0.710193
    26  H    0.372370
    27  C    0.155271
    28  H    0.016595
    29  H    0.044968
    30  H   -0.001474
 Sum of ESP charges =  -0.00000

 Normal termination of Gaussian 16 at Tue Apr  9 17:52:45 2024.
