 Gaussian 16, Revision C.02,
 Gaussian 16:  AS64L-G16RevC.02  7-Dec-2021

 ----------------------------------------------------------------------
 # wb97xd/genecp scrf=(solvent=toluene,pcm) nosymm pop=(chelpg) scfcyc=
 300
 ----------------------------------------------------------------------

 --------------------
 me_metriazole_chelpg
 --------------------
 Symbolic Z-matrix:
 Charge =  0 Multiplicity = 1

                          Input orientation:
 ---------------------------------------------------------------------
 Center     Atomic      Atomic             Coordinates (Angstroms)
 Number     Number       Type             X           Y           Z
 ---------------------------------------------------------------------
      1          6           0        2.581276    1.637705    1.163320
      2          1           0        2.500555    2.108652    2.129333
      3          6           0        3.198410    0.470481    0.748318
      4          7           0        2.033724    2.169540    0.062127
      5          7           0        2.279761    1.387393   -1.007426
      6          7           0        2.971632    0.379014   -0.606038
      7          5           0        4.002983   -0.574207    1.566520
      8          6           0        1.225434    3.365800   -0.077574
      9          1           0        1.354127    3.746562   -1.088791
     10          1           0        0.173377    3.135038    0.095008
     11          1           0        1.562188    4.112354    0.640220
     12          6           0        4.288215   -0.327748    3.095067
     13          1           0        3.660702    0.424245    3.580667
     14          1           0        4.238757   -1.255931    3.673700
     15          1           0        5.329289    0.016712    3.178521
     16          6           0        4.524261   -1.878209    0.867404
     17          1           0        3.745032   -2.643127    1.005566
     18          1           0        4.669101   -1.775684   -0.209969
     19          1           0        5.430665   -2.279963    1.330263
 ---------------------------------------------------------------------

 SCF Done:  E(RwB97XD) =  -385.623575833     A.U. after   15 cycles

 Alpha  occ. eigenvalues --  -14.53440 -14.49510 -14.45849 -10.33920 -10.33799
 Alpha  occ. eigenvalues --  -10.29083 -10.25226 -10.24338  -6.84409  -1.21529
 Alpha  occ. eigenvalues --   -1.02963  -0.91177  -0.84454  -0.80800  -0.77162
 Alpha  occ. eigenvalues --   -0.72944  -0.68941  -0.63348  -0.59519  -0.55833
 Alpha  occ. eigenvalues --   -0.53910  -0.51632  -0.51337  -0.50296  -0.48930
 Alpha  occ. eigenvalues --   -0.46771  -0.46120  -0.43927  -0.39719  -0.39551
 Alpha  occ. eigenvalues --   -0.38197  -0.35726  -0.34949
 Alpha virt. eigenvalues --    0.02788   0.03677   0.04829   0.05145   0.06102
 Alpha virt. eigenvalues --    0.06872   0.07236   0.07737   0.08236   0.09025
 Alpha virt. eigenvalues --    0.09841   0.10280   0.10829   0.11300   0.12019

 Mulliken charges:
               1
     1  C   -0.321176
     2  H    0.257547
     3  C   -0.397488
     4  N    0.239374
     5  N   -0.054721
     6  N   -0.107919
     7  B    0.443628
     8  C   -0.369538
     9  H    0.205091
    10  H    0.215161
    11  H    0.178316
    12  C   -0.594488
    13  H    0.132321
    14  H    0.161133
    15  H    0.194236
    16  C   -0.660718
    17  H    0.179983
    18  H    0.158411
    19  H    0.140849
 Sum of Mulliken charges =  -0.00000

 Dipole moment (field-independent basis, Debye):
    X=             -1.6246    Y=              3.8185    Z=              3.6013  Tot=              5.4945
 Quadrupole moment (field-independent basis, Debye-Ang):
   XX=            -61.0405   YY=            -40.2241   ZZ=            -56.6230
   XY=              4.7039   XZ=              9.5991   YZ=              3.4343

 ESP charges:
               1
     1  C   -0.392180
     2  H    0.192369
     3  C    0.128542
     4  N    0.627202
     5  N   -0.389824
     6  N   -0.271265
     7  B    0.400853
     8  C   -0.432973
     9  H    0.143334
    10  H    0.155482
    11  H    0.155104
    12  C   -0.438407
    13  H    0.080216
    14  H    0.089188
    15  H    0.091911
    16  C   -0.225280
    17  H    0.045110
    18  H   -0.012014
    19  H    0.052633
 Sum of ESP charges =   0.00000

 Normal termination of Gaussian 16 at Wed Apr 10 14:29:18 2024.
