 Gaussian 16, Revision C.02,
 Gaussian 16:  AS64L-G16RevC.02  7-Dec-2021

 ----------------------------------------------------------------------
 # wb97xd/genecp scrf=(solvent=toluene,pcm) nosymm pop=(chelpg) scfcyc=
 300
 ----------------------------------------------------------------------

 ---------------------
 me_naphthalene_chelpg
 ---------------------
 Symbolic Z-matrix:
 Charge =  0 Multiplicity = 1

                          Input orientation:
 ---------------------------------------------------------------------
 Center     Atomic      Atomic             Coordinates (Angstroms)
 Number     Number       Type             X           Y           Z
 ---------------------------------------------------------------------
      1          6           0       -5.384227   -0.799196    0.411683
      2          6           0       -4.045103   -0.784942    0.145446
      3          6           0       -3.340565    0.419543   -0.017699
      4          6           0       -4.005372    1.658648    0.034891
      5          6           0       -5.398901    1.638797    0.307357
      6          6           0       -6.054821    0.448351    0.503382
      7          1           0       -5.940120   -1.720990    0.538437
      8          6           0       -1.948777    0.260670   -0.214655
      9          6           0       -3.211706    2.813760   -0.182263
     10          1           0       -5.945084    2.574785    0.365410
     11          1           0       -7.117257    0.451740    0.719486
     12          6           0       -1.864279    2.677252   -0.417590
     13          6           0       -1.224543    1.409840   -0.424470
     14          1           0       -3.672018    3.796083   -0.159552
     15          1           0       -1.265735    3.567015   -0.586223
     16          1           0       -0.149743    1.367947   -0.576421
     17          5           0       -1.544474   -1.279064    0.041884
     18          6           0       -1.074506   -1.470308    1.581680
     19          1           0       -0.869018   -2.512853    1.854454
     20          1           0       -0.135650   -0.919605    1.714206
     21          1           0       -1.778609   -1.059036    2.315701
     22          6           0       -0.551864   -1.995065   -1.006624
     23          1           0        0.454797   -1.591671   -0.842405
     24          1           0       -0.472531   -3.079189   -0.849236
     25          1           0       -0.786653   -1.824370   -2.062436
     26          7           0       -3.179180   -1.940095   -0.106176
     27          6           0       -3.434296   -3.066485    0.814677
     28          1           0       -4.417119   -3.504419    0.623608
     29          1           0       -2.667892   -3.824710    0.652347
     30          1           0       -3.382645   -2.715882    1.842375
     31          6           0       -3.426077   -2.397082   -1.499754
     32          1           0       -2.772911   -3.240372   -1.718987
     33          1           0       -4.470943   -2.696930   -1.609563
     34          1           0       -3.206735   -1.580964   -2.186300
 ---------------------------------------------------------------------

 SCF Done:  E(RwB97XD) =  -623.924870483     A.U. after   15 cycles

 Alpha  occ. eigenvalues --  -14.51007 -10.33212 -10.32437 -10.32353 -10.30081
 Alpha  occ. eigenvalues --  -10.29863 -10.29778 -10.29428 -10.28702 -10.28639
 Alpha  occ. eigenvalues --  -10.28363 -10.27720 -10.25977 -10.22901 -10.22727
 Alpha  occ. eigenvalues --   -6.80659  -1.08600  -0.97956  -0.92543  -0.88111
 Alpha  occ. eigenvalues --   -0.84650  -0.83359  -0.82342  -0.78147  -0.77201
 Alpha  occ. eigenvalues --   -0.74487  -0.71937  -0.70952  -0.67535  -0.62720
 Alpha  occ. eigenvalues --   -0.60651  -0.60340  -0.58040  -0.56867  -0.56649
 Alpha  occ. eigenvalues --   -0.52988  -0.52275  -0.51191  -0.50339  -0.49417
 Alpha  occ. eigenvalues --   -0.49134  -0.48410  -0.47759  -0.47626  -0.46294
 Alpha  occ. eigenvalues --   -0.45873  -0.44767  -0.43801  -0.43370  -0.41834
 Alpha  occ. eigenvalues --   -0.41576  -0.38773  -0.37509  -0.35283  -0.35026
 Alpha  occ. eigenvalues --   -0.32142  -0.28323
 Alpha virt. eigenvalues --    0.01774   0.03607   0.04394   0.04702   0.04754
 Alpha virt. eigenvalues --    0.05583   0.06126   0.06246   0.07103   0.07802
 Alpha virt. eigenvalues --    0.08084   0.08199   0.08468   0.08690   0.09718

 Mulliken charges:
               1
     1  C   -0.292048
     2  C    0.145907
     3  C   -0.130645
     4  C    0.255504
     5  C   -0.263479
     6  C   -0.406396
     7  H    0.193728
     8  C    0.012399
     9  C   -0.093525
    10  H    0.198649
    11  H    0.236240
    12  C   -0.434382
    13  C   -0.197147
    14  H    0.213550
    15  H    0.219462
    16  H    0.229821
    17  B   -0.367726
    18  C   -0.555091
    19  H    0.143235
    20  H    0.188572
    21  H    0.173566
    22  C   -0.542935
    23  H    0.169938
    24  H    0.165241
    25  H    0.159794
    26  N   -0.095281
    27  C   -0.256106
    28  H    0.169891
    29  H    0.238945
    30  H    0.230299
    31  C   -0.372765
    32  H    0.220905
    33  H    0.207487
    34  H    0.234395
 Sum of Mulliken charges =  -0.00000

 Dipole moment (field-independent basis, Debye):
    X=             -3.6053    Y=             -2.4229    Z=             -0.5883  Tot=              4.3834
 Quadrupole moment (field-independent basis, Debye-Ang):
   XX=            -74.1261   YY=            -83.5357   ZZ=           -102.1110
   XY=             13.9558   XZ=             -0.1750   YZ=              0.4315

 ESP charges:
               1
     1  C   -0.200375
     2  C    0.153261
     3  C   -0.008932
     4  C    0.259364
     5  C   -0.294697
     6  C   -0.092973
     7  H    0.145954
     8  C   -0.158176
     9  C   -0.317467
    10  H    0.151830
    11  H    0.113901
    12  C   -0.023528
    13  C   -0.168258
    14  H    0.136758
    15  H    0.087719
    16  H    0.098368
    17  B    0.606242
    18  C   -0.296551
    19  H    0.024809
    20  H    0.021645
    21  H   -0.019523
    22  C   -0.588452
    23  H    0.102080
    24  H    0.086908
    25  H    0.072239
    26  N   -0.119021
    27  C   -0.275843
    28  H    0.116284
    29  H    0.132605
    30  H    0.128289
    31  C   -0.119463
    32  H    0.120559
    33  H    0.074159
    34  H    0.050285
 Sum of ESP charges =  -0.00000

 Normal termination of Gaussian 16 at Wed Apr 10 15:26:30 2024.
