 Gaussian 16, Revision C.02,
 Gaussian 16:  AS64L-G16RevC.02  7-Dec-2021

 ----------------------------------------------------------------------
 # wb97xd/genecp scrf=(solvent=toluene,pcm) nosymm pop=(chelpg) scfcyc=
 300
 ----------------------------------------------------------------------

 ------------------------
 me_naphtoxanthene_chelpg
 ------------------------
 Symbolic Z-matrix:
 Charge =  0 Multiplicity = 1

                          Input orientation:
 ---------------------------------------------------------------------
 Center     Atomic      Atomic             Coordinates (Angstroms)
 Number     Number       Type             X           Y           Z
 ---------------------------------------------------------------------
      1          6           0       -2.144572    1.637097    1.204756
      2          6           0       -0.913703    1.832232    1.888124
      3          6           0       -0.094446    2.912998    1.677545
      4          6           0       -0.477794    3.920177    0.766656
      5          6           0       -1.704083    3.778998    0.086491
      6          6           0       -2.503601    2.638250    0.310412
      7          1           0       -0.597151    1.076509    2.598668
      8          1           0        0.844662    3.006048    2.211912
      9          6           0       -2.131827    4.777845   -0.833625
     10          8           0       -3.695396    2.513543   -0.341420
     11          6           0       -3.378571    4.597467   -1.499672
     12          6           0       -4.137777    3.451463   -1.230227
     13          6           0       -3.825930    5.549023   -2.440182
     14          6           0       -5.354808    3.214026   -1.862960
     15          6           0       -5.048069    5.307631   -3.089349
     16          6           0       -5.783635    4.178741   -2.800197
     17          1           0       -5.417639    6.020416   -3.818411
     18          1           0       -6.726722    4.026904   -3.310028
     19          5           0       -2.983428    0.331575    1.464005
     20          7           0       -6.074444    2.034543   -1.589676
     21          6           0       -2.995309   -0.312563    2.902181
     22          1           0       -3.952443   -0.004265    3.351009
     23          1           0       -3.024127   -1.406646    2.872769
     24          1           0       -2.211734    0.010209    3.591122
     25          6           0       -3.785764   -0.414147    0.334474
     26          1           0       -3.087615   -1.168962   -0.062074
     27          1           0       -4.636514   -0.979036    0.730078
     28          1           0       -4.111859    0.198273   -0.505246
     29          6           0       -6.557109    1.888202   -0.220811
     30          1           0       -7.407993    2.557124   -0.015511
     31          1           0       -6.881487    0.856376   -0.066471
     32          1           0       -5.761117    2.099796    0.489892
     33          6           0       -7.075299    1.644273   -2.562922
     34          1           0       -7.380789    0.617027   -2.352089
     35          1           0       -7.979497    2.275279   -2.538098
     36          1           0       -6.655052    1.672534   -3.569809
     37          6           0       -3.003271    6.697664   -2.679045
     38          1           0       -3.344350    7.436615   -3.396547
     39          6           0       -1.821463    6.868310   -2.029592
     40          1           0       -1.213891    7.745959   -2.224506
     41          6           0       -1.348545    5.901669   -1.084536
     42          6           0       -0.108881    6.030276   -0.387750
     43          6           0        0.307977    5.084228    0.498439
     44          1           0        0.506010    6.904330   -0.577178
     45          1           0        1.253025    5.201236    1.017982
 ---------------------------------------------------------------------

 SCF Done:  E(RwB97XD) =  -1005.17393047     A.U. after   17 cycles

 Alpha  occ. eigenvalues --  -19.30943 -14.44371 -10.36798 -10.35925 -10.32958
 Alpha  occ. eigenvalues --  -10.31076 -10.30985 -10.30878 -10.30840 -10.30605
 Alpha  occ. eigenvalues --  -10.30435 -10.30384 -10.30170 -10.29982 -10.29598
 Alpha  occ. eigenvalues --  -10.29593 -10.29529 -10.29521 -10.29512 -10.29111
 Alpha  occ. eigenvalues --  -10.28628 -10.27368 -10.24775 -10.23986  -6.84348
 Alpha  occ. eigenvalues --   -1.21363  -1.04875  -1.00420  -0.97976  -0.93842
 Alpha  occ. eigenvalues --   -0.91628  -0.89579  -0.87402  -0.85960  -0.83524
 Alpha  occ. eigenvalues --   -0.81576  -0.80793  -0.80204  -0.76832  -0.76100
 Alpha  occ. eigenvalues --   -0.75652  -0.73552  -0.72849  -0.69865  -0.66449
 Alpha  occ. eigenvalues --   -0.65996  -0.64320  -0.61436  -0.61130  -0.58971
 Alpha  occ. eigenvalues --   -0.57532  -0.57311  -0.56732  -0.55274  -0.54914
 Alpha  occ. eigenvalues --   -0.54833  -0.52986  -0.52365  -0.51892  -0.51398
 Alpha  occ. eigenvalues --   -0.50814  -0.49554  -0.49417  -0.49055  -0.48503
 Alpha  occ. eigenvalues --   -0.47961  -0.47698  -0.47409  -0.46757  -0.46000
 Alpha  occ. eigenvalues --   -0.45861  -0.45463  -0.45250  -0.44820  -0.42523
 Alpha  occ. eigenvalues --   -0.42093  -0.41723  -0.40361  -0.38673  -0.38297
 Alpha  occ. eigenvalues --   -0.37762  -0.34987  -0.34394  -0.31615  -0.28566
 Alpha  occ. eigenvalues --   -0.25471
 Alpha virt. eigenvalues --    0.00009   0.01150   0.03555   0.03817   0.04414
 Alpha virt. eigenvalues --    0.04466   0.04688   0.05491   0.05683   0.05863
 Alpha virt. eigenvalues --    0.06908   0.07016   0.07238   0.07409   0.07973

 Mulliken charges:
               1
     1  C    0.251566
     2  C   -0.144946
     3  C   -0.371847
     4  C    0.171543
     5  C    0.061594
     6  C   -0.156864
     7  H    0.207051
     8  H    0.201500
     9  C   -0.046150
    10  O    0.013232
    11  C    0.162181
    12  C   -0.251423
    13  C    0.410089
    14  C   -0.130022
    15  C   -0.302428
    16  C   -0.263599
    17  H    0.201581
    18  H    0.204686
    19  B    0.130896
    20  N    0.173226
    21  C   -0.651134
    22  H    0.193059
    23  H    0.152857
    24  H    0.136864
    25  C   -0.690857
    26  H    0.188221
    27  H    0.147866
    28  H    0.267769
    29  C   -0.450318
    30  H    0.174733
    31  H    0.173912
    32  H    0.188853
    33  C   -0.373496
    34  H    0.184014
    35  H    0.147837
    36  H    0.173871
    37  C   -0.393275
    38  H    0.185847
    39  C   -0.358763
    40  H    0.196288
    41  C    0.227754
    42  C   -0.366377
    43  C   -0.367044
    44  H    0.196780
    45  H    0.192874
 Sum of Mulliken charges =  -0.00000

 Dipole moment (field-independent basis, Debye):
    X=             -0.9929    Y=              0.6376    Z=             -0.4789  Tot=              1.2734
 Quadrupole moment (field-independent basis, Debye-Ang):
   XX=           -124.1006   YY=           -135.4774   ZZ=           -143.1919
   XY=              1.6950   XZ=             10.4585   YZ=             -8.0660

 ESP charges:
               1
     1  C   -0.408885
     2  C   -0.012131
     3  C   -0.306411
     4  C    0.221536
     5  C   -0.082356
     6  C    0.305725
     7  H    0.096193
     8  H    0.138154
     9  C    0.006488
    10  O   -0.163067
    11  C   -0.054898
    12  C    0.088692
    13  C    0.197108
    14  C    0.116938
    15  C   -0.325142
    16  C   -0.102794
    17  H    0.152136
    18  H    0.131775
    19  B    0.632836
    20  N   -0.213609
    21  C   -0.458516
    22  H    0.074571
    23  H    0.076555
    24  H    0.084992
    25  C   -0.313808
    26  H    0.039688
    27  H    0.065979
    28  H   -0.019074
    29  C    0.091439
    30  H   -0.014070
    31  H    0.044403
    32  H   -0.009749
    33  C   -0.153384
    34  H    0.091243
    35  H    0.064123
    36  H    0.066694
    37  C   -0.213926
    38  H    0.139174
    39  C   -0.221905
    40  H    0.137702
    41  C    0.152258
    42  C   -0.182597
    43  C   -0.228619
    44  H    0.131053
    45  H    0.137487
 Sum of ESP charges =  -0.00000

 Normal termination of Gaussian 16 at Wed Apr 10 15:18:28 2024.
