 Gaussian 16, Revision C.02,
 Gaussian 16:  AS64L-G16RevC.02  7-Dec-2021

 ----------------------------------------------------------------------
 # wb97xd/genecp scrf=(solvent=toluene,pcm) nosymm pop=(chelpg) scfcyc=
 300
 ----------------------------------------------------------------------

 -------------------------
 me_phquinolinamine_chelpg
 -------------------------
 Symbolic Z-matrix:
 Charge =  0 Multiplicity = 1

                          Input orientation:
 ---------------------------------------------------------------------
 Center     Atomic      Atomic             Coordinates (Angstroms)
 Number     Number       Type             X           Y           Z
 ---------------------------------------------------------------------
      1          6           0       -3.980150    0.995350   -0.156943
      2          6           0       -2.670916    0.579897   -0.195507
      3          6           0       -1.641833    1.562875   -0.039653
      4          6           0       -1.997743    2.918181    0.183131
      5          6           0       -3.361814    3.292551    0.226871
      6          6           0       -4.348871    2.352775    0.057600
      7          1           0       -4.776655    0.266310   -0.262970
      8          6           0       -0.949526    3.858356    0.323036
      9          1           0       -3.618971    4.336293    0.381737
     10          6           0        0.347529    3.435330    0.232589
     11          6           0        0.597373    2.065977   -0.002993
     12          1           0       -1.187476    4.903586    0.493390
     13          1           0        1.176158    4.126003    0.332297
     14          1           0        1.622378    1.712562   -0.084599
     15          7           0       -0.344587    1.163872   -0.137270
     16          5           0       -2.371533   -0.964923   -0.308757
     17          6           0       -1.331025   -1.677605    0.624316
     18          1           0       -0.415696   -1.805384    0.029755
     19          1           0       -1.048090   -1.109390    1.512240
     20          1           0       -1.658451   -2.683076    0.910512
     21          6           0       -3.223111   -1.827312   -1.314833
     22          1           0       -4.121897   -2.155529   -0.769859
     23          1           0       -3.572424   -1.283508   -2.196322
     24          1           0       -2.712645   -2.742623   -1.627949
     25          7           0       -5.695632    2.704798    0.166634
     26          1           0       -5.883106    3.565539    0.654660
     27          6           0       -6.744983    2.225524   -0.628126
     28          6           0       -8.058414    2.414796   -0.183274
     29          6           0       -6.533064    1.592189   -1.856193
     30          6           0       -9.130412    1.979649   -0.947808
     31          1           0       -8.230980    2.899314    0.772383
     32          6           0       -7.614142    1.140638   -2.603545
     33          1           0       -5.526570    1.464341   -2.235544
     34          6           0       -8.917409    1.329871   -2.159982
     35          1           0      -10.140237    2.138477   -0.585743
     36          1           0       -7.429953    0.648759   -3.552398
     37          1           0       -9.755592    0.979978   -2.750804
 ---------------------------------------------------------------------

 SCF Done:  E(RwB97XD) =  -792.357113863     A.U. after   17 cycles

 Alpha  occ. eigenvalues --  -14.46050 -14.43113 -10.34138 -10.33944 -10.32484
 Alpha  occ. eigenvalues --  -10.32328 -10.30829 -10.30779 -10.29777 -10.29664
 Alpha  occ. eigenvalues --  -10.29341 -10.29334 -10.29285 -10.28968 -10.28850
 Alpha  occ. eigenvalues --  -10.28475 -10.27802 -10.24790 -10.24075  -6.84474
 Alpha  occ. eigenvalues --   -1.06412  -1.05248  -0.96624  -0.94432  -0.91404
 Alpha  occ. eigenvalues --   -0.86593  -0.85589  -0.85152  -0.82419  -0.80216
 Alpha  occ. eigenvalues --   -0.76800  -0.74973  -0.73583  -0.71576  -0.70056
 Alpha  occ. eigenvalues --   -0.69554  -0.63855  -0.63016  -0.62205  -0.60100
 Alpha  occ. eigenvalues --   -0.58022  -0.56495  -0.54520  -0.53608  -0.53460
 Alpha  occ. eigenvalues --   -0.52541  -0.51469  -0.51272  -0.50880  -0.50441
 Alpha  occ. eigenvalues --   -0.49489  -0.48445  -0.48248  -0.47133  -0.46427
 Alpha  occ. eigenvalues --   -0.45807  -0.45386  -0.45006  -0.44028  -0.43159
 Alpha  occ. eigenvalues --   -0.40441  -0.39593  -0.39029  -0.38236  -0.34109
 Alpha  occ. eigenvalues --   -0.33793  -0.33520  -0.31481  -0.27241
 Alpha virt. eigenvalues --   -0.00191   0.03327   0.03887   0.04376   0.04402
 Alpha virt. eigenvalues --    0.04664   0.05042   0.05346   0.05512   0.06235
 Alpha virt. eigenvalues --    0.06488   0.06822   0.06975   0.07412   0.07968

 Mulliken charges:
               1
     1  C   -0.716182
     2  C    0.298121
     3  C   -0.645121
     4  C    0.746622
     5  C   -0.495821
     6  C    0.097817
     7  H    0.258101
     8  C    0.033647
     9  H    0.205944
    10  C   -0.522771
    11  C   -0.043207
    12  H    0.225489
    13  H    0.240000
    14  H    0.242659
    15  N    0.142288
    16  B    0.320828
    17  C   -0.760514
    18  H    0.166180
    19  H    0.177851
    20  H    0.135652
    21  C   -0.726737
    22  H    0.177689
    23  H    0.164101
    24  H    0.159665
    25  N   -0.073459
    26  H    0.314652
    27  C   -0.162011
    28  C   -0.512786
    29  C    0.339950
    30  C   -0.381551
    31  H    0.209265
    32  C   -0.184330
    33  H    0.235829
    34  C   -0.328096
    35  H    0.222683
    36  H    0.231542
    37  H    0.206012
 Sum of Mulliken charges =  -0.00000

 Dipole moment (field-independent basis, Debye):
    X=             -1.0117    Y=              2.8445    Z=              0.6201  Tot=              3.0821
 Quadrupole moment (field-independent basis, Debye-Ang):
   XX=           -101.4881   YY=           -101.5672   ZZ=           -119.4679
   XY=             -6.7194   XZ=             -3.1941   YZ=              7.2798

 ESP charges:
               1
     1  C   -0.143288
     2  C   -0.401586
     3  C    0.472475
     4  C    0.011763
     5  C   -0.407782
     6  C    0.451002
     7  H    0.114857
     8  C   -0.029343
     9  H    0.172971
    10  C   -0.283639
    11  C    0.321009
    12  H    0.110570
    13  H    0.128566
    14  H    0.033842
    15  N   -0.604322
    16  B    0.701349
    17  C   -0.524982
    18  H    0.106338
    19  H    0.091393
    20  H    0.091687
    21  C   -0.480768
    22  H    0.091368
    23  H    0.089831
    24  H    0.085301
    25  N   -0.779540
    26  H    0.383579
    27  C    0.440598
    28  C   -0.282542
    29  C   -0.217088
    30  C   -0.050649
    31  H    0.137280
    32  C   -0.067192
    33  H    0.100483
    34  C   -0.179408
    35  H    0.100916
    36  H    0.107556
    37  H    0.107391
 Sum of ESP charges =   0.00000

 Normal termination of Gaussian 16 at Wed Apr 10 13:43:20 2024.
