 Gaussian 16, Revision C.02,
 Gaussian 16:  AS64L-G16RevC.02  7-Dec-2021

 ----------------------------------------------------------------------
 # wb97xd/genecp scrf=(solvent=toluene,pcm) nosymm pop=(chelpg) scfcyc=
 300
 ----------------------------------------------------------------------

 -------------------
 me_quinoline_chelpg
 -------------------
 Symbolic Z-matrix:
 Charge =  0 Multiplicity = 1

                          Input orientation:
 ---------------------------------------------------------------------
 Center     Atomic      Atomic             Coordinates (Angstroms)
 Number     Number       Type             X           Y           Z
 ---------------------------------------------------------------------
      1          6           0       -4.003643    0.056865    0.184844
      2          6           0       -2.635393    0.065987    0.002210
      3          6           0       -1.986338    1.338312   -0.089452
      4          6           0       -2.741457    2.534483    0.039911
      5          6           0       -4.138634    2.459509    0.266102
      6          6           0       -4.757385    1.242802    0.334920
      7          1           0       -4.528053   -0.892935    0.231747
      8          6           0       -2.059030    3.768587   -0.074534
      9          1           0       -4.704759    3.379553    0.370972
     10          1           0       -5.827544    1.181524    0.497673
     11          6           0       -0.713320    3.770665   -0.310377
     12          6           0       -0.052350    2.528408   -0.437151
     13          1           0       -2.614466    4.696233    0.021510
     14          1           0       -0.153764    4.693089   -0.406191
     15          1           0        1.017228    2.509560   -0.633332
     16          7           0       -0.645687    1.364954   -0.337278
     17          5           0       -1.861189   -1.306989   -0.003813
     18          6           0       -0.504621   -1.503170    0.761861
     19          1           0        0.293900   -1.384903    0.016150
     20          1           0       -0.308475   -0.761707    1.538730
     21          1           0       -0.404109   -2.513393    1.173067
     22          6           0       -2.516487   -2.553338   -0.712584
     23          1           0       -3.057748   -3.119446    0.060790
     24          1           0       -3.234904   -2.313699   -1.500264
     25          1           0       -1.763967   -3.243440   -1.106831
 ---------------------------------------------------------------------

 SCF Done:  E(RwB97XD) =  -505.975898595     A.U. after   16 cycles

 Alpha  occ. eigenvalues --  -14.43240 -10.32967 -10.32810 -10.31164 -10.30793
 Alpha  occ. eigenvalues --  -10.30041 -10.29969 -10.29762 -10.29590 -10.27587
 Alpha  occ. eigenvalues --  -10.24738 -10.24001  -6.84342  -1.05568  -0.95914
 Alpha  occ. eigenvalues --   -0.91628  -0.85849  -0.84922  -0.80166  -0.76714
 Alpha  occ. eigenvalues --   -0.74486  -0.73052  -0.70076  -0.62458  -0.61196
 Alpha  occ. eigenvalues --   -0.60472  -0.55096  -0.54179  -0.52124  -0.51434
 Alpha  occ. eigenvalues --   -0.50529  -0.50289  -0.49455  -0.48473  -0.46432
 Alpha  occ. eigenvalues --   -0.46174  -0.45705  -0.43786  -0.43669  -0.39983
 Alpha  occ. eigenvalues --   -0.38999  -0.38399  -0.34178  -0.33178  -0.31080
 Alpha virt. eigenvalues --   -0.00458   0.03676   0.03829   0.04414   0.04646
 Alpha virt. eigenvalues --    0.04911   0.06251   0.06375   0.06738   0.07883
 Alpha virt. eigenvalues --    0.08275   0.08678   0.09217   0.09512   0.09768

 Mulliken charges:
               1
     1  C   -0.228057
     2  C   -0.071490
     3  C   -0.720254
     4  C    0.512340
     5  C   -0.324944
     6  C   -0.449865
     7  H    0.226470
     8  C    0.639077
     9  H    0.203302
    10  H    0.235272
    11  C   -0.787054
    12  C    0.072031
    13  H    0.246006
    14  H    0.230981
    15  H    0.247375
    16  N    0.105995
    17  B    0.274106
    18  C   -0.679651
    19  H    0.178055
    20  H    0.180680
    21  H    0.139639
    22  C   -0.722395
    23  H    0.172279
    24  H    0.154913
    25  H    0.165190
 Sum of Mulliken charges =  -0.00000

 Dipole moment (field-independent basis, Debye):
    X=             -1.2739    Y=              2.1238    Z=              0.2070  Tot=              2.4852
 Quadrupole moment (field-independent basis, Debye-Ang):
   XX=            -65.6141   YY=            -62.6473   ZZ=            -81.5060
   XY=             -2.8885   XZ=             -2.8837   YZ=             -0.5562

 ESP charges:
               1
     1  C   -0.011038
     2  C   -0.424524
     3  C    0.541242
     4  C   -0.030098
     5  C   -0.178250
     6  C   -0.127888
     7  H    0.089351
     8  C   -0.043233
     9  H    0.128544
    10  H    0.111680
    11  C   -0.286763
    12  C    0.328552
    13  H    0.120632
    14  H    0.135098
    15  H    0.039272
    16  N   -0.615626
    17  B    0.636124
    18  C   -0.484155
    19  H    0.101756
    20  H    0.083059
    21  H    0.078257
    22  C   -0.392477
    23  H    0.081072
    24  H    0.049028
    25  H    0.070387
 Sum of ESP charges =   0.00000

 Normal termination of Gaussian 16 at Wed Apr 10 14:19:43 2024.
