 Gaussian 16, Revision C.02,
 Gaussian 16:  AS64L-G16RevC.02  7-Dec-2021

 ----------------------------------------------------------------------
 # wb97xd/genecp scrf=(solvent=toluene,pcm) nosymm pop=(chelpg) scfcyc=
 300
 ----------------------------------------------------------------------

 ------------------------------------
 me_tetramethylbenzopiperidine_chelpg
 ------------------------------------
 Symbolic Z-matrix:
 Charge =  0 Multiplicity = 1

                          Input orientation:
 ---------------------------------------------------------------------
 Center     Atomic      Atomic             Coordinates (Angstroms)
 Number     Number       Type             X           Y           Z
 ---------------------------------------------------------------------
      1          6           0       -0.635315    0.975849    0.857807
      2          6           0        0.713259    0.964594    0.530659
      3          6           0        1.391627    2.114591    0.096334
      4          6           0        0.667261    3.322868    0.029746
      5          6           0       -0.673282    3.338212    0.428796
      6          6           0       -1.328357    2.178144    0.820122
      7          1           0       -1.132784    0.062316    1.164440
      8          1           0        1.257727    0.028512    0.609956
      9          1           0       -1.213740    4.275005    0.435351
     10          1           0       -2.373429    2.219295    1.108162
     11          5           0        2.934418    1.970878   -0.206491
     12          6           0        3.718225    2.621853   -1.405533
     13          1           0        3.122338    3.149768   -2.144425
     14          1           0        4.441025    3.339189   -0.994702
     15          1           0        4.325447    1.855785   -1.905032
     16          6           0        3.770767    1.012057    0.734336
     17          1           0        3.701253   -0.001507    0.310610
     18          1           0        4.836747    1.257769    0.750858
     19          1           0        3.398150    0.948640    1.760034
     20          6           0        0.804626    5.123663   -1.678697
     21          6           0        1.926234    5.377012    0.627550
     22          6           0        1.933144    5.987286   -2.269759
     23          6           0        2.979134    6.284075   -0.033659
     24          6           0        2.475616    7.005145   -1.275739
     25          1           0        1.559811    6.486413   -3.169626
     26          1           0        2.749335    5.325861   -2.579863
     27          1           0        3.339805    7.000718    0.711511
     28          1           0        3.831464    5.656854   -0.319039
     29          1           0        3.292302    7.574237   -1.729797
     30          1           0        1.703055    7.735688   -1.012484
     31          7           0        1.318614    4.515393   -0.420175
     32          6           0        0.905753    6.224726    1.419715
     33          1           0        1.402988    6.705065    2.267596
     34          1           0        0.452700    7.012795    0.820180
     35          1           0        0.107395    5.593942    1.817932
     36          6           0       -0.474725    5.988864   -1.566957
     37          1           0       -0.355128    6.859239   -0.924900
     38          1           0       -0.739960    6.353720   -2.563987
     39          1           0       -1.323241    5.408755   -1.203425
     40          6           0        2.665297    4.513739    1.659944
     41          1           0        1.987855    3.868809    2.222953
     42          1           0        3.429803    3.890753    1.189299
     43          1           0        3.174016    5.171370    2.369602
     44          6           0        0.478536    4.007992   -2.683408
     45          1           0        1.309115    3.312369   -2.800818
     46          1           0       -0.399323    3.434065   -2.378906
     47          1           0        0.265352    4.456371   -3.657475
 ---------------------------------------------------------------------

 SCF Done:  E(RwB97XD) =  -744.264854124     A.U. after   15 cycles

 Alpha  occ. eigenvalues --  -14.41454 -10.32301 -10.32208 -10.31677 -10.28814
 Alpha  occ. eigenvalues --  -10.28569 -10.28388 -10.28096 -10.27286 -10.27133
 Alpha  occ. eigenvalues --  -10.26988 -10.26728 -10.26647 -10.26316 -10.26310
 Alpha  occ. eigenvalues --  -10.26203 -10.24600 -10.24305  -6.84289  -1.03149
 Alpha  occ. eigenvalues --   -0.95201  -0.90791  -0.89896  -0.84846  -0.84149
 Alpha  occ. eigenvalues --   -0.81770  -0.80122  -0.78626  -0.77557  -0.76937
 Alpha  occ. eigenvalues --   -0.76669  -0.71306  -0.69642  -0.67631  -0.66830
 Alpha  occ. eigenvalues --   -0.62587  -0.58908  -0.57518  -0.56103  -0.55554
 Alpha  occ. eigenvalues --   -0.54443  -0.53630  -0.52707  -0.51668  -0.51116
 Alpha  occ. eigenvalues --   -0.50320  -0.49857  -0.49761  -0.49148  -0.48640
 Alpha  occ. eigenvalues --   -0.47470  -0.47010  -0.46233  -0.46111  -0.45928
 Alpha  occ. eigenvalues --   -0.45554  -0.44790  -0.44476  -0.43778  -0.43476
 Alpha  occ. eigenvalues --   -0.43268  -0.42077  -0.40268  -0.39921  -0.38960
 Alpha  occ. eigenvalues --   -0.38822  -0.38036  -0.37390  -0.32636  -0.32187
 Alpha  occ. eigenvalues --   -0.28065
 Alpha virt. eigenvalues --    0.02532   0.03854   0.04640   0.04740   0.04918
 Alpha virt. eigenvalues --    0.05797   0.05937   0.06198   0.06503   0.06647
 Alpha virt. eigenvalues --    0.07320   0.07915   0.08158   0.08505   0.08752

 Mulliken charges:
               1
     1  C   -0.468270
     2  C   -0.097916
     3  C    0.223683
     4  C    0.184757
     5  C    0.066753
     6  C   -0.740109
     7  H    0.216752
     8  H    0.223248
     9  H    0.169017
    10  H    0.241650
    11  B   -0.143060
    12  C   -0.580946
    13  H    0.175995
    14  H    0.182958
    15  H    0.175524
    16  C   -0.658798
    17  H    0.164608
    18  H    0.162497
    19  H    0.187723
    20  C   -0.466974
    21  C   -0.619613
    22  C   -0.024318
    23  C    0.025270
    24  C   -0.711307
    25  H    0.183249
    26  H    0.122500
    27  H    0.193839
    28  H    0.118548
    29  H    0.242502
    30  H    0.137384
    31  N    0.700031
    32  C   -0.431765
    33  H    0.188622
    34  H    0.132977
    35  H    0.161035
    36  C   -0.380305
    37  H    0.114506
    38  H    0.187876
    39  H    0.154993
    40  C   -0.382085
    41  H    0.216419
    42  H    0.195424
    43  H    0.201224
    44  C   -0.451195
    45  H    0.123400
    46  H    0.190067
    47  H    0.191628
 Sum of Mulliken charges =  -0.00000

 Dipole moment (field-independent basis, Debye):
    X=             -0.1792    Y=              0.8011    Z=              0.1224  Tot=              0.8300
 Quadrupole moment (field-independent basis, Debye-Ang):
   XX=           -117.7266   YY=           -109.3096   ZZ=           -121.6136
   XY=              1.3136   XZ=             -0.6408   YZ=             -0.5433

 ESP charges:
               1
     1  C   -0.137709
     2  C   -0.087791
     3  C   -0.358187
     4  C    0.577844
     5  C   -0.229943
     6  C   -0.108131
     7  H    0.108769
     8  H    0.087611
     9  H    0.139680
    10  H    0.104303
    11  B    0.669420
    12  C   -0.592019
    13  H    0.142039
    14  H    0.131734
    15  H    0.096814
    16  C   -0.392826
    17  H    0.076117
    18  H    0.062735
    19  H    0.060088
    20  C    0.824835
    21  C    0.694823
    22  C   -0.235517
    23  C   -0.237877
    24  C    0.146056
    25  H    0.017766
    26  H    0.025580
    27  H    0.021353
    28  H    0.040545
    29  H    0.003425
    30  H   -0.052648
    31  N   -0.903797
    32  C   -0.303436
    33  H    0.058801
    34  H    0.065340
    35  H    0.017044
    36  C   -0.422949
    37  H    0.101902
    38  H    0.066539
    39  H    0.061930
    40  C   -0.258944
    41  H    0.022900
    42  H    0.030137
    43  H    0.057880
    44  C   -0.272856
    45  H    0.008599
    46  H    0.010794
    47  H    0.061224
 Sum of ESP charges =   0.00000

 Normal termination of Gaussian 16 at Tue Apr  9 17:11:29 2024.
