 Gaussian 16, Revision C.02,
 Gaussian 16:  AS64L-G16RevC.02  7-Dec-2021

 ----------------------------------------------------------------------
 # wb97xd/genecp scrf=(solvent=toluene,pcm) nosymm pop=(chelpg) scfcyc=
 300
 ----------------------------------------------------------------------

 -------------------------
 me_tribenzooxepine_chelpg
 -------------------------
 Symbolic Z-matrix:
 Charge =  0 Multiplicity = 1

                          Input orientation:
 ---------------------------------------------------------------------
 Center     Atomic      Atomic             Coordinates (Angstroms)
 Number     Number       Type             X           Y           Z
 ---------------------------------------------------------------------
      1          6           0        0.069020    0.190940    0.915828
      2          6           0        0.912202    0.957123    1.743545
      3          6           0        2.148054    1.601593    1.234848
      4          6           0        0.376364   -0.044060   -0.515665
      5          6           0        2.142465    2.256587    0.006765
      6          6           0        0.836333    0.991875   -1.329685
      7          8           0        0.988558    2.246904   -0.748938
      8          6           0        0.587126    1.098851    3.095827
      9          6           0       -0.543961    0.504364    3.633331
     10          1           0       -0.779483    0.639148    4.682866
     11          6           0       -1.378228   -0.249426    2.815870
     12          1           0       -2.272731   -0.709534    3.220072
     13          6           0       -1.068739   -0.400210    1.473063
     14          1           0       -1.729027   -0.974774    0.832724
     15          1           0        1.227053    1.702924    3.729635
     16          6           0        0.230616   -1.306498   -1.093921
     17          6           0        0.555582   -1.512462   -2.426844
     18          1           0        0.449326   -2.499955   -2.861726
     19          6           0        1.044453   -0.462122   -3.194677
     20          1           0        1.315881   -0.648546   -4.229057
     21          6           0        1.191775    0.826208   -2.665539
     22          1           0       -0.110207   -2.135867   -0.483907
     23          6           0        3.343478    1.568026    1.959527
     24          6           0        4.481629    2.174930    1.456650
     25          1           0        5.408858    2.130814    2.016410
     26          6           0        4.449903    2.844655    0.236794
     27          1           0        5.350212    3.320340   -0.130451
     28          6           0        3.274583    2.899098   -0.510140
     29          1           0        3.380590    1.038425    2.904556
     30          5           0        1.680019    2.010998   -3.597260
     31          7           0        3.157993    3.567585   -1.759091
     32          6           0        2.346694    4.783131   -1.649703
     33          1           0        2.831344    5.527023   -0.999627
     34          1           0        2.217172    5.217434   -2.641871
     35          1           0        1.363750    4.541829   -1.248967
     36          6           0        4.417700    3.846278   -2.430146
     37          1           0        4.199123    4.214588   -3.433821
     38          1           0        5.020934    4.609270   -1.914005
     39          1           0        5.004539    2.931230   -2.522760
     40          6           0        0.681830    3.187637   -3.899418
     41          1           0        1.146890    4.063836   -4.359087
     42          1           0       -0.033704    2.787510   -4.634162
     43          1           0        0.092669    3.494331   -3.032396
     44          6           0        2.937606    1.754031   -4.512526
     45          1           0        2.619494    1.081357   -5.322908
     46          1           0        3.327406    2.655275   -4.991932
     47          1           0        3.750329    1.239571   -3.992135
 ---------------------------------------------------------------------

 SCF Done:  E(RwB97XD) =  -1006.35345970     A.U. after   16 cycles

 Alpha  occ. eigenvalues --  -19.27724 -14.45278 -10.34889 -10.34681 -10.33011
 Alpha  occ. eigenvalues --  -10.30849 -10.30785 -10.30763 -10.30547 -10.30287
 Alpha  occ. eigenvalues --  -10.30139 -10.29332 -10.29308 -10.29269 -10.29268
 Alpha  occ. eigenvalues --  -10.29218 -10.29217 -10.29178 -10.29171 -10.29041
 Alpha  occ. eigenvalues --  -10.28730 -10.27256 -10.24574 -10.24233  -6.84468
 Alpha  occ. eigenvalues --   -1.18634  -1.05163  -0.98338  -0.96920  -0.95013
 Alpha  occ. eigenvalues --   -0.89031  -0.88206  -0.86429  -0.84079  -0.83773
 Alpha  occ. eigenvalues --   -0.81775  -0.81143  -0.80015  -0.76860  -0.75887
 Alpha  occ. eigenvalues --   -0.74098  -0.72732  -0.70348  -0.68877  -0.68178
 Alpha  occ. eigenvalues --   -0.66954  -0.62817  -0.62143  -0.59863  -0.58742
 Alpha  occ. eigenvalues --   -0.57984  -0.56862  -0.55983  -0.55763  -0.54820
 Alpha  occ. eigenvalues --   -0.54225  -0.53926  -0.53396  -0.52098  -0.51748
 Alpha  occ. eigenvalues --   -0.51191  -0.50027  -0.49223  -0.48256  -0.47865
 Alpha  occ. eigenvalues --   -0.47722  -0.46944  -0.46607  -0.46418  -0.46263
 Alpha  occ. eigenvalues --   -0.45618  -0.45525  -0.45441  -0.44725  -0.44379
 Alpha  occ. eigenvalues --   -0.42806  -0.42512  -0.39261  -0.39214  -0.37367
 Alpha  occ. eigenvalues --   -0.37014  -0.35528  -0.34893  -0.32241  -0.31353
 Alpha  occ. eigenvalues --   -0.30358  -0.29521
 Alpha virt. eigenvalues --    0.01976   0.03073   0.03759   0.04092   0.04477
 Alpha virt. eigenvalues --    0.04584   0.05262   0.05444   0.05711   0.05955
 Alpha virt. eigenvalues --    0.06363   0.06613   0.07050   0.07344   0.07459

 Mulliken charges:
               1
     1  C    0.698623
     2  C    0.579466
     3  C    0.615486
     4  C    0.549568
     5  C   -0.581086
     6  C   -0.419676
     7  O   -0.038665
     8  C   -0.282060
     9  C   -0.513461
    10  H    0.227624
    11  C   -0.492011
    12  H    0.226106
    13  C   -0.250740
    14  H    0.222942
    15  H    0.215954
    16  C   -0.654079
    17  C   -0.612953
    18  H    0.231990
    19  C   -0.198191
    20  H    0.212777
    21  C    0.518533
    22  H    0.206628
    23  C   -0.615097
    24  C   -0.524172
    25  H    0.243465
    26  C   -0.123075
    27  H    0.173085
    28  C   -0.060001
    29  H    0.201570
    30  B   -0.065100
    31  N    0.105923
    32  C   -0.310112
    33  H    0.196228
    34  H    0.174110
    35  H    0.184750
    36  C   -0.327575
    37  H    0.175897
    38  H    0.157962
    39  H    0.194338
    40  C   -0.712196
    41  H    0.150586
    42  H    0.204481
    43  H    0.214515
    44  C   -0.648974
    45  H    0.177515
    46  H    0.154029
    47  H    0.215075
 Sum of Mulliken charges =  -0.00000

 Dipole moment (field-independent basis, Debye):
    X=              1.6705    Y=              0.3985    Z=              0.1712  Tot=              1.7259
 Quadrupole moment (field-independent basis, Debye-Ang):
   XX=           -134.6378   YY=           -139.2636   ZZ=           -136.3293
   XY=             13.8210   XZ=             -3.9801   YZ=             -2.0590

 ESP charges:
               1
     1  C    0.057309
     2  C    0.070266
     3  C   -0.006246
     4  C   -0.087756
     5  C    0.160835
     6  C    0.318242
     7  O   -0.383567
     8  C   -0.135182
     9  C   -0.113520
    10  H    0.109131
    11  C   -0.118660
    12  H    0.109040
    13  C   -0.118003
    14  H    0.104109
    15  H    0.107795
    16  C   -0.079166
    17  C   -0.167852
    18  H    0.115414
    19  C   -0.068299
    20  H    0.093885
    21  C   -0.282111
    22  H    0.091426
    23  C   -0.154086
    24  C   -0.138888
    25  H    0.121254
    26  C   -0.162182
    27  H    0.128265
    28  C    0.088195
    29  H    0.104163
    30  B    0.601526
    31  N   -0.089721
    32  C    0.053019
    33  H   -0.005681
    34  H    0.027140
    35  H    0.037310
    36  C   -0.276132
    37  H    0.122800
    38  H    0.090274
    39  H    0.109796
    40  C   -0.431267
    41  H    0.080820
    42  H    0.060294
    43  H    0.078212
    44  C   -0.435339
    45  H    0.097861
    46  H    0.071930
    47  H    0.043347
 Sum of ESP charges =   0.00000

 Normal termination of Gaussian 16 at Wed Apr 10 14:58:31 2024.
