 Gaussian 16, Revision C.02,
 Gaussian 16:  AS64L-G16RevC.02  7-Dec-2021

 ----------------------------------------------------------------------
 # wb97xd/genecp scrf=(solvent=toluene,pcm) nosymm pop=(chelpg) scfcyc=
 300
 ----------------------------------------------------------------------

 ------------------
 me_xanthene_chelpg
 ------------------
 Symbolic Z-matrix:
 Charge =  0 Multiplicity = 1

                          Input orientation:
 ---------------------------------------------------------------------
 Center     Atomic      Atomic             Coordinates (Angstroms)
 Number     Number       Type             X           Y           Z
 ---------------------------------------------------------------------
      1          6           0       -2.098229    1.425373    1.025615
      2          6           0       -0.740555    1.292147    1.341009
      3          6           0        0.184296    2.270646    1.002402
      4          6           0       -0.243529    3.443385    0.393330
      5          6           0       -1.590653    3.651739    0.107015
      6          6           0       -2.478352    2.619109    0.404597
      7          1           0       -0.398164    0.389811    1.837948
      8          1           0        1.235313    2.131427    1.228487
      9          1           0        0.484262    4.210903    0.160361
     10          6           0       -2.161650    4.964364   -0.420172
     11          8           0       -3.815828    2.775959    0.132720
     12          6           0       -1.106740    5.801638   -1.146490
     13          1           0       -1.533151    6.747532   -1.485928
     14          1           0       -0.287130    6.056939   -0.471935
     15          1           0       -0.696333    5.273381   -2.010779
     16          6           0       -2.692342    5.774845    0.786697
     17          1           0       -1.872064    6.011562    1.470373
     18          1           0       -3.144548    6.709110    0.441932
     19          1           0       -3.447799    5.211917    1.339723
     20          6           0       -3.346563    4.624127   -1.319451
     21          6           0       -4.154845    3.558307   -0.943822
     22          6           0       -3.691312    5.345023   -2.463543
     23          6           0       -5.329278    3.211014   -1.637730
     24          6           0       -4.828128    5.012264   -3.181290
     25          1           0       -3.073949    6.169134   -2.796379
     26          6           0       -5.646783    3.967971   -2.766812
     27          1           0       -5.091760    5.577238   -4.068233
     28          1           0       -6.538395    3.736544   -3.335096
     29          5           0       -3.077093    0.224496    1.317588
     30          7           0       -6.087450    2.102360   -1.222127
     31          6           0       -3.022954   -0.473116    2.726440
     32          1           0       -3.828158   -0.002501    3.312707
     33          1           0       -3.261471   -1.540505    2.691640
     34          1           0       -2.101067   -0.318891    3.293030
     35          6           0       -4.040539   -0.342518    0.216755
     36          1           0       -3.436164   -1.071349   -0.347294
     37          1           0       -4.882543   -0.905030    0.633100
     38          1           0       -4.409146    0.393493   -0.499621
     39          6           0       -6.655331    2.167776    0.118299
     40          1           0       -7.531549    2.834578    0.155579
     41          1           0       -6.970104    1.165513    0.420206
     42          1           0       -5.913597    2.517166    0.832344
     43          6           0       -7.022187    1.552118   -2.181916
     44          1           0       -7.361419    0.580578   -1.815100
     45          1           0       -7.913200    2.183550   -2.336148
     46          1           0       -6.530466    1.398835   -3.144178
 ---------------------------------------------------------------------

 SCF Done:  E(RwB97XD) =  -893.262453462     A.U. after   16 cycles

 Alpha  occ. eigenvalues --  -19.29239 -14.44117 -10.35034 -10.34582 -10.32644
 Alpha  occ. eigenvalues --  -10.31705 -10.30413 -10.29979 -10.29736 -10.29723
 Alpha  occ. eigenvalues --  -10.29179 -10.29002 -10.28499 -10.28423 -10.28402
 Alpha  occ. eigenvalues --  -10.28324 -10.27619 -10.27485 -10.27191 -10.24778
 Alpha  occ. eigenvalues --  -10.23819  -6.84367  -1.19707  -1.04624  -0.97122
 Alpha  occ. eigenvalues --   -0.96273  -0.91912  -0.86837  -0.85095  -0.83894
 Alpha  occ. eigenvalues --   -0.82442  -0.81084  -0.80131  -0.79086  -0.76731
 Alpha  occ. eigenvalues --   -0.75580  -0.73562  -0.72740  -0.68680  -0.67033
 Alpha  occ. eigenvalues --   -0.64670  -0.64285  -0.60268  -0.58265  -0.57046
 Alpha  occ. eigenvalues --   -0.56374  -0.56148  -0.55304  -0.54382  -0.53926
 Alpha  occ. eigenvalues --   -0.53348  -0.52912  -0.51404  -0.50365  -0.49505
 Alpha  occ. eigenvalues --   -0.48837  -0.48396  -0.48185  -0.47654  -0.47432
 Alpha  occ. eigenvalues --   -0.46781  -0.46707  -0.46061  -0.45595  -0.45564
 Alpha  occ. eigenvalues --   -0.45060  -0.44631  -0.44318  -0.43794  -0.42549
 Alpha  occ. eigenvalues --   -0.41483  -0.40625  -0.38971  -0.37616  -0.35610
 Alpha  occ. eigenvalues --   -0.32988  -0.32476  -0.30171  -0.27399
 Alpha virt. eigenvalues --    0.02581   0.03779   0.04515   0.04593   0.05286
 Alpha virt. eigenvalues --    0.05392   0.05732   0.05856   0.06072   0.06637
 Alpha virt. eigenvalues --    0.06748   0.07036   0.07272   0.07619   0.07710

 Mulliken charges:
               1
     1  C    0.433076
     2  C   -0.198171
     3  C   -0.795221
     4  C   -0.344386
     5  C    0.349457
     6  C    0.033392
     7  H    0.206214
     8  H    0.239494
     9  H    0.171565
    10  C   -0.234911
    11  O   -0.073822
    12  C   -0.434733
    13  H    0.168039
    14  H    0.166323
    15  H    0.200349
    16  C   -0.779413
    17  H    0.180746
    18  H    0.186516
    19  H    0.189585
    20  C    0.360522
    21  C    0.053447
    22  C    0.008265
    23  C    0.012271
    24  C   -0.585251
    25  H    0.160351
    26  C   -0.448410
    27  H    0.244417
    28  H    0.177529
    29  B    0.207575
    30  N    0.253947
    31  C   -0.713928
    32  H    0.187612
    33  H    0.143128
    34  H    0.147767
    35  C   -0.739130
    36  H    0.185632
    37  H    0.131831
    38  H    0.324943
    39  C   -0.413517
    40  H    0.179382
    41  H    0.168612
    42  H    0.183206
    43  C   -0.397161
    44  H    0.174390
    45  H    0.151383
    46  H    0.177083
 Sum of Mulliken charges =  -0.00000

 Dipole moment (field-independent basis, Debye):
    X=             -0.4592    Y=              0.6709    Z=             -0.2662  Tot=              0.8555
 Quadrupole moment (field-independent basis, Debye-Ang):
   XX=           -118.1789   YY=           -124.0754   ZZ=           -132.4186
   XY=              1.9312   XZ=              4.5690   YZ=             -3.6906

 ESP charges:
               1
     1  C   -0.294023
     2  C   -0.064616
     3  C   -0.184843
     4  C   -0.067042
     5  C   -0.144357
     6  C    0.275329
     7  H    0.094740
     8  H    0.112619
     9  H    0.103192
    10  C    0.344630
    11  O   -0.261733
    12  C   -0.257704
    13  H    0.078502
    14  H    0.080405
    15  H    0.028871
    16  C   -0.158999
    17  H    0.028634
    18  H    0.026758
    19  H    0.034027
    20  C   -0.089810
    21  C    0.136603
    22  C   -0.152323
    23  C    0.090761
    24  C   -0.164233
    25  H    0.120334
    26  C   -0.185861
    27  H    0.119860
    28  H    0.132325
    29  B    0.612203
    30  N   -0.036009
    31  C   -0.465806
    32  H    0.083127
    33  H    0.085021
    34  H    0.082624
    35  C   -0.363725
    36  H    0.054708
    37  H    0.075061
    38  H   -0.014050
    39  C    0.005621
    40  H   -0.003936
    41  H    0.041630
    42  H    0.029939
    43  C   -0.199910
    44  H    0.094319
    45  H    0.064736
    46  H    0.072401
 Sum of ESP charges =  -0.00000

 Normal termination of Gaussian 16 at Wed Apr 10 15:09:18 2024.
