 Gaussian 16, Revision C.02,
 Gaussian 16:  AS64L-G16RevC.02  7-Dec-2021

 ----------------------------------------------------------------------
 # wb97xd/genecp scrf=(solvent=toluene,pcm) nosymm pop=(chelpg) scfcyc=
 300
 ----------------------------------------------------------------------

 ------------------------------
 mesityl_dimethylaniline_chelpg
 ------------------------------
 Symbolic Z-matrix:
 Charge =  0 Multiplicity = 1

                          Input orientation:
 ---------------------------------------------------------------------
 Center     Atomic      Atomic             Coordinates (Angstroms)
 Number     Number       Type             X           Y           Z
 ---------------------------------------------------------------------
      1          6           0       -0.637298    0.888019    0.736617
      2          6           0        0.733747    1.063548    0.859950
      3          6           0        1.393574    2.222957    0.422543
      4          6           0        0.597539    3.287733   -0.079783
      5          6           0       -0.788464    3.104568   -0.205086
      6          6           0       -1.390363    1.916319    0.184458
      7          1           0       -1.107753   -0.033494    1.058898
      8          1           0        1.333722    0.256977    1.269831
      9          1           0       -1.410836    3.901994   -0.590304
     10          1           0       -2.464744    1.808388    0.076232
     11          7           0        1.184152    4.483563   -0.477928
     12          5           0        2.948346    2.100979    0.293690
     13          6           0        2.157195    5.145678    0.370715
     14          1           0        2.488563    4.476464    1.162341
     15          1           0        3.033441    5.458480   -0.204581
     16          1           0        1.710660    6.030084    0.848362
     17          6           0        0.437272    5.403713   -1.305329
     18          1           0       -0.059817    4.871946   -2.118724
     19          1           0       -0.317268    5.977450   -0.743260
     20          1           0        1.137237    6.114574   -1.750161
     21          6           0        3.719138    1.180389    1.326522
     22          6           0        4.474050    0.080230    0.866851
     23          6           0        3.686426    1.432204    2.714005
     24          6           0        5.161927   -0.723469    1.772517
     25          6           0        4.406432    0.619718    3.588470
     26          6           0        5.148229   -0.466741    3.139716
     27          1           0        5.727212   -1.573966    1.399840
     28          1           0        4.383061    0.840323    4.652580
     29          6           0        3.744162    2.746406   -0.913611
     30          6           0        3.307773    2.591800   -2.246946
     31          6           0        4.942934    3.456814   -0.687528
     32          6           0        4.051778    3.133931   -3.292501
     33          6           0        5.643439    4.011439   -1.757048
     34          6           0        5.218818    3.856177   -3.071367
     35          1           0        3.705949    2.989775   -4.313204
     36          1           0        6.552694    4.572731   -1.557635
     37          6           0        4.552665   -0.274245   -0.600563
     38          1           0        5.159210    0.449477   -1.150924
     39          1           0        4.996352   -1.262966   -0.734282
     40          1           0        3.565664   -0.287439   -1.069868
     41          6           0        5.882697   -1.360555    4.103921
     42          1           0        6.161756   -0.821360    5.011862
     43          1           0        5.254525   -2.206410    4.401491
     44          1           0        6.790891   -1.768089    3.653803
     45          6           0        2.051143    1.839286   -2.620356
     46          1           0        1.851333    0.990111   -1.965934
     47          1           0        1.177109    2.493769   -2.561469
     48          1           0        2.121672    1.468160   -3.645253
     49          6           0        6.015217    4.417783   -4.219532
     50          1           0        6.729165    3.676822   -4.593544
     51          1           0        5.366891    4.698944   -5.052716
     52          1           0        6.584381    5.298918   -3.914847
     53          6           0        2.941437    2.608228    3.300889
     54          1           0        3.468661    3.547283    3.099466
     55          1           0        1.935532    2.702028    2.890065
     56          1           0        2.859865    2.512841    4.385381
     57          6           0        5.509431    3.662793    0.698680
     58          1           0        4.763420    4.055247    1.393662
     59          1           0        5.878920    2.725250    1.120914
     60          1           0        6.338069    4.373359    0.672411
 ---------------------------------------------------------------------

 SCF Done:  E(RwB97XD) =  -1089.60034385     A.U. after   16 cycles

 Alpha  occ. eigenvalues --  -14.44485 -10.32933 -10.30773 -10.30655 -10.29241
 Alpha  occ. eigenvalues --  -10.29162 -10.29101 -10.29095 -10.29094 -10.29062
 Alpha  occ. eigenvalues --  -10.29013 -10.28619 -10.27990 -10.27603 -10.27562
 Alpha  occ. eigenvalues --  -10.27554 -10.27213 -10.27198 -10.27195 -10.27091
 Alpha  occ. eigenvalues --  -10.27025 -10.27024 -10.26885 -10.26772 -10.26483
 Alpha  occ. eigenvalues --  -10.26130 -10.26091  -6.84407  -1.05101  -0.96167
 Alpha  occ. eigenvalues --   -0.95730  -0.94786  -0.88312  -0.87879  -0.87638
 Alpha  occ. eigenvalues --   -0.87342  -0.84763  -0.84676  -0.81488  -0.79531
 Alpha  occ. eigenvalues --   -0.79374  -0.77965  -0.77243  -0.76861  -0.76723
 Alpha  occ. eigenvalues --   -0.75343  -0.69804  -0.67474  -0.66612  -0.65990
 Alpha  occ. eigenvalues --   -0.65905  -0.65428  -0.62058  -0.59283  -0.57412
 Alpha  occ. eigenvalues --   -0.56990  -0.56635  -0.56085  -0.55902  -0.55599
 Alpha  occ. eigenvalues --   -0.53201  -0.52068  -0.51711  -0.51344  -0.50886
 Alpha  occ. eigenvalues --   -0.50753  -0.50287  -0.50231  -0.49754  -0.49514
 Alpha  occ. eigenvalues --   -0.49221  -0.48912  -0.48271  -0.48121  -0.47939
 Alpha  occ. eigenvalues --   -0.47604  -0.47384  -0.47342  -0.47274  -0.46611
 Alpha  occ. eigenvalues --   -0.46049  -0.45227  -0.44979  -0.44083  -0.43900
 Alpha  occ. eigenvalues --   -0.43218  -0.42342  -0.41879  -0.41325  -0.40902
 Alpha  occ. eigenvalues --   -0.40708  -0.38516  -0.37786  -0.36184  -0.33034
 Alpha  occ. eigenvalues --   -0.31090  -0.30888  -0.30571  -0.30140  -0.26829
 Alpha virt. eigenvalues --    0.00172   0.03742   0.04382   0.04530   0.04728
 Alpha virt. eigenvalues --    0.05048   0.05336   0.05615   0.05712   0.05788
 Alpha virt. eigenvalues --    0.05880   0.06404   0.06586   0.06724   0.06966

 Mulliken charges:
               1
     1  C   -0.623435
     2  C   -0.135678
     3  C    0.001715
     4  C   -0.515165
     5  C    0.073995
     6  C   -0.350691
     7  H    0.220544
     8  H    0.313916
     9  H    0.196683
    10  H    0.227280
    11  N    0.479158
    12  B   -1.525850
    13  C   -0.474380
    14  H    0.049067
    15  H    0.230347
    16  H    0.182392
    17  C   -0.388929
    18  H    0.156102
    19  H    0.200787
    20  H    0.182674
    21  C    0.143984
    22  C    0.187402
    23  C    0.187470
    24  C   -0.093656
    25  C   -0.269041
    26  C   -0.034538
    27  H    0.213979
    28  H    0.203760
    29  C   -0.039164
    30  C    0.288671
    31  C    0.088064
    32  C   -0.207148
    33  C   -0.211652
    34  C    0.068627
    35  H    0.206781
    36  H    0.211097
    37  C   -0.443273
    38  H    0.252474
    39  H    0.178862
    40  H    0.207700
    41  C   -0.489052
    42  H    0.163063
    43  H    0.212009
    44  H    0.162611
    45  C   -0.564076
    46  H    0.170335
    47  H    0.212605
    48  H    0.189786
    49  C   -0.463000
    50  H    0.211265
    51  H    0.165080
    52  H    0.161134
    53  C   -0.427241
    54  H    0.183923
    55  H    0.230988
    56  H    0.189117
    57  C   -0.499044
    58  H    0.123724
    59  H    0.241799
    60  H    0.184040
 Sum of Mulliken charges =  -0.00000

 Dipole moment (field-independent basis, Debye):
    X=             -0.3046    Y=              1.6318    Z=             -0.3818  Tot=              1.7033
 Quadrupole moment (field-independent basis, Debye-Ang):
   XX=           -165.0797   YY=           -152.3173   ZZ=           -162.5555
   XY=              0.6523   XZ=              2.0660   YZ=             -4.2322

 ESP charges:
               1
     1  C   -0.269679
     2  C    0.148194
     3  C   -0.253614
     4  C    0.385030
     5  C   -0.262671
     6  C   -0.059921
     7  H    0.131293
     8  H   -0.049503
     9  H    0.118271
    10  H    0.105731
    11  N   -0.334480
    12  B    0.551022
    13  C    0.050779
    14  H    0.008974
    15  H    0.002647
    16  H    0.047490
    17  C   -0.169332
    18  H    0.099009
    19  H    0.076762
    20  H    0.095666
    21  C   -0.223891
    22  C    0.216124
    23  C    0.207420
    24  C   -0.408524
    25  C   -0.435612
    26  C    0.311300
    27  H    0.152776
    28  H    0.153503
    29  C   -0.305067
    30  C    0.219697
    31  C    0.323107
    32  C   -0.402804
    33  C   -0.447828
    34  C    0.283478
    35  H    0.147571
    36  H    0.154818
    37  C   -0.200179
    38  H    0.014222
    39  H    0.071704
    40  H    0.041923
    41  C   -0.265609
    42  H    0.076693
    43  H    0.075351
    44  H    0.074222
    45  C   -0.145089
    46  H   -0.004741
    47  H    0.023896
    48  H    0.057010
    49  C   -0.189352
    50  H    0.057809
    51  H    0.052794
    52  H    0.056204
    53  C   -0.105069
    54  H    0.037554
    55  H   -0.050798
    56  H    0.056233
    57  C   -0.238127
    58  H    0.048736
    59  H    0.014007
    60  H    0.072866
 Sum of ESP charges =  -0.00000

 Normal termination of Gaussian 16 at Tue Apr  9 18:42:46 2024.
