 Gaussian 16, Revision C.02,
 Gaussian 16:  AS64L-G16RevC.02  7-Dec-2021

 ----------------------------------------------------------------------
 # wb97xd/genecp scrf=(solvent=toluene,pcm) nosymm pop=(chelpg) scfcyc=
 300
 ----------------------------------------------------------------------

 -------------------------
 mesityl_metriazole_chelpg
 -------------------------
 Symbolic Z-matrix:
 Charge =  0 Multiplicity = 1

                          Input orientation:
 ---------------------------------------------------------------------
 Center     Atomic      Atomic             Coordinates (Angstroms)
 Number     Number       Type             X           Y           Z
 ---------------------------------------------------------------------
      1          6           0        2.818967    1.639009    1.126371
      2          1           0        2.982205    2.176694    2.046463
      3          6           0        3.197371    0.370503    0.725722
      4          7           0        2.141660    2.156601    0.093241
      5          7           0        2.100409    1.274650   -0.927106
      6          7           0        2.718975    0.209872   -0.553315
      7          5           0        3.998659   -0.684780    1.529420
      8          6           0        1.536004    3.467147   -0.045035
      9          1           0        0.885239    3.439983   -0.916501
     10          1           0        0.948928    3.695896    0.843950
     11          1           0        2.305191    4.227313   -0.187290
     12          6           0        3.982791   -2.202782    1.122646
     13          6           0        2.766681   -2.893404    0.938772
     14          6           0        5.189809   -2.923831    0.991185
     15          6           0        2.778494   -4.254661    0.641184
     16          6           0        5.161368   -4.275905    0.661790
     17          6           0        3.964200   -4.962755    0.485303
     18          6           0        4.796321   -0.160714    2.788377
     19          6           0        4.540351   -0.698340    4.069582
     20          6           0        5.774813    0.842235    2.666415
     21          6           0        5.228250   -0.213279    5.176179
     22          6           0        6.463580    1.287080    3.796153
     23          6           0        6.197862    0.781628    5.061407
     24          1           0        7.234064    2.045095    3.678034
     25          1           0        5.012307   -0.629505    6.156907
     26          1           0        6.100172   -4.811982    0.549164
     27          1           0        1.831974   -4.776418    0.525760
     28          6           0        1.419278   -2.222362    1.081346
     29          1           0        1.400716   -1.482899    1.884702
     30          1           0        1.153043   -1.699906    0.159364
     31          1           0        0.644170   -2.962584    1.291076
     32          6           0        6.538235   -2.269723    1.188307
     33          1           0        6.644447   -1.363715    0.586790
     34          1           0        6.691990   -1.984922    2.232209
     35          1           0        7.340959   -2.951575    0.900815
     36          6           0        3.956628   -6.421715    0.113256
     37          1           0        3.037420   -6.911309    0.442285
     38          1           0        4.024590   -6.541384   -0.972839
     39          1           0        4.804921   -6.949034    0.555888
     40          6           0        3.525323   -1.798578    4.275687
     41          1           0        2.549558   -1.535975    3.858120
     42          1           0        3.842806   -2.723810    3.788338
     43          1           0        3.385948   -2.002307    5.339132
     44          6           0        6.161558    1.448995    1.334228
     45          1           0        5.875278    0.830113    0.483587
     46          1           0        5.685372    2.424679    1.193639
     47          1           0        7.242534    1.602839    1.287992
     48          6           0        6.922452    1.291759    6.279079
     49          1           0        7.813529    1.859302    6.003333
     50          1           0        6.275512    1.950310    6.867198
     51          1           0        7.228533    0.468888    6.930003
 ---------------------------------------------------------------------

 SCF Done:  E(RwB97XD) =  -1004.93873614     A.U. after   17 cycles

 Alpha  occ. eigenvalues --  -14.53384 -14.49567 -14.45815 -10.33853 -10.33623
 Alpha  occ. eigenvalues --  -10.29689 -10.29590 -10.29506 -10.29153 -10.29149
 Alpha  occ. eigenvalues --  -10.29128 -10.29007 -10.27845 -10.27726 -10.27617
 Alpha  occ. eigenvalues --  -10.27555 -10.27398 -10.27234 -10.27001 -10.26972
 Alpha  occ. eigenvalues --  -10.26884 -10.26766 -10.26622 -10.26133  -6.84989
 Alpha  occ. eigenvalues --   -1.21477  -1.02960  -0.96483  -0.95784  -0.91230
 Alpha  occ. eigenvalues --   -0.88347  -0.88220  -0.87585  -0.87461  -0.84303
 Alpha  occ. eigenvalues --   -0.79874  -0.79307  -0.78306  -0.77554  -0.76992
 Alpha  occ. eigenvalues --   -0.76829  -0.73188  -0.69336  -0.67253  -0.66453
 Alpha  occ. eigenvalues --   -0.65899  -0.65593  -0.63305  -0.59649  -0.59538
 Alpha  occ. eigenvalues --   -0.57483  -0.56753  -0.56468  -0.54533  -0.53065
 Alpha  occ. eigenvalues --   -0.52029  -0.51710  -0.51483  -0.51209  -0.51076
 Alpha  occ. eigenvalues --   -0.50412  -0.50127  -0.50027  -0.49615  -0.48949
 Alpha  occ. eigenvalues --   -0.48617  -0.48243  -0.48147  -0.47708  -0.47593
 Alpha  occ. eigenvalues --   -0.47248  -0.46326  -0.45245  -0.44615  -0.43980
 Alpha  occ. eigenvalues --   -0.42721  -0.42365  -0.41695  -0.41233  -0.40784
 Alpha  occ. eigenvalues --   -0.39374  -0.38481  -0.37942  -0.35816  -0.34844
 Alpha  occ. eigenvalues --   -0.31401  -0.30883  -0.30708  -0.30191
 Alpha virt. eigenvalues --   -0.00064   0.03532   0.04328   0.04510   0.04788
 Alpha virt. eigenvalues --    0.05206   0.05345   0.05526   0.05835   0.05977
 Alpha virt. eigenvalues --    0.06515   0.06582   0.06925   0.07200   0.07443

 Mulliken charges:
               1
     1  C   -0.862325
     2  H    0.296443
     3  C   -0.831482
     4  N    0.338503
     5  N    0.221936
     6  N   -0.061761
     7  B   -0.749104
     8  C   -0.348399
     9  H    0.212797
    10  H    0.196208
    11  H    0.202498
    12  C    0.343712
    13  C    0.120083
    14  C    0.272556
    15  C   -0.153104
    16  C   -0.382160
    17  C    0.084070
    18  C    0.208136
    19  C    0.230660
    20  C    0.184491
    21  C   -0.418588
    22  C   -0.432183
    23  C    0.168996
    24  H    0.213940
    25  H    0.198135
    26  H    0.202743
    27  H    0.204144
    28  C   -0.496238
    29  H    0.113673
    30  H    0.243066
    31  H    0.183096
    32  C   -0.470338
    33  H    0.184221
    34  H    0.226907
    35  H    0.182713
    36  C   -0.548239
    37  H    0.163551
    38  H    0.208610
    39  H    0.164722
    40  C   -0.501341
    41  H    0.202998
    42  H    0.225225
    43  H    0.189956
    44  C   -0.566983
    45  H    0.164251
    46  H    0.218480
    47  H    0.207410
    48  C   -0.498651
    49  H    0.165180
    50  H    0.205456
    51  H    0.171336
 Sum of Mulliken charges =  -0.00000

 Dipole moment (field-independent basis, Debye):
    X=             -0.3427    Y=              4.1221    Z=              3.1953  Tot=              5.2267
 Quadrupole moment (field-independent basis, Debye-Ang):
   XX=           -143.7706   YY=           -127.5969   ZZ=           -147.9100
   XY=             10.4977   XZ=              9.5061   YZ=              4.5542

 ESP charges:
               1
     1  C   -0.291409
     2  H    0.101388
     3  C    0.174706
     4  N    0.551306
     5  N   -0.313377
     6  N   -0.394585
     7  B    0.437459
     8  C   -0.328006
     9  H    0.099372
    10  H    0.140101
    11  H    0.136580
    12  C   -0.334205
    13  C    0.209483
    14  C    0.228120
    15  C   -0.393186
    16  C   -0.418761
    17  C    0.297307
    18  C   -0.285137
    19  C    0.141876
    20  C    0.300746
    21  C   -0.400530
    22  C   -0.459483
    23  C    0.311535
    24  H    0.166014
    25  H    0.160447
    26  H    0.157297
    27  H    0.152906
    28  C   -0.187850
    29  H    0.054882
    30  H    0.082373
    31  H    0.051954
    32  C   -0.108825
    33  H   -0.005413
    34  H    0.019276
    35  H    0.046259
    36  C   -0.242699
    37  H    0.068413
    38  H    0.070514
    39  H    0.069758
    40  C   -0.037220
    41  H   -0.012497
    42  H    0.018425
    43  H    0.025096
    44  C   -0.247092
    45  H    0.101458
    46  H    0.054601
    47  H    0.066328
    48  C   -0.250561
    49  H    0.074289
    50  H    0.067087
    51  H    0.073480
 Sum of ESP charges =  -0.00000

 Normal termination of Gaussian 16 at Tue Apr  9 18:00:59 2024.
