 Gaussian 16, Revision C.02,
 Gaussian 16:  AS64L-G16RevC.02  7-Dec-2021

 ----------------------------------------------------------------------
 # wb97xd/genecp scrf=(solvent=toluene,pcm) nosymm pop=(chelpg) scfcyc=
 300
 ----------------------------------------------------------------------

 --------------------------
 no2_benzopiperidine_chelpg
 --------------------------
 Symbolic Z-matrix:
 Charge =  0 Multiplicity = 1

                          Input orientation:
 ---------------------------------------------------------------------
 Center     Atomic      Atomic             Coordinates (Angstroms)
 Number     Number       Type             X           Y           Z
 ---------------------------------------------------------------------
      1          6           0       -0.579731    0.999954    0.794473
      2          6           0        0.791400    1.095581    0.902932
      3          6           0        1.493572    2.181086    0.333265
      4          6           0        0.765503    3.239239   -0.276022
      5          6           0       -0.619023    3.098900   -0.421061
      6          6           0       -1.272458    1.995902    0.106006
      7          1           0       -1.107539    0.155196    1.218553
      8          1           0        1.338557    0.297478    1.392916
      9          1           0       -1.196883    3.872339   -0.908768
     10          1           0       -2.349649    1.924121    0.001643
     11          5           0        2.971191    2.030874    0.149391
     12          6           0        0.815261    5.176572   -1.744838
     13          6           0        1.997186    5.220428    0.387029
     14          6           0        1.811730    6.160934   -2.344997
     15          6           0        2.985379    6.251654   -0.141971
     16          6           0        2.371461    7.083137   -1.265362
     17          1           0        1.310394    6.735699   -3.128441
     18          1           0        2.625456    5.599986   -2.816422
     19          1           0        3.296107    6.889202    0.690367
     20          1           0        3.876893    5.737603   -0.509463
     21          1           0        3.117516    7.761319   -1.687039
     22          1           0        1.561302    7.705934   -0.864746
     23          7           0        1.453392    4.377838   -0.698297
     24          1           0        2.476436    4.581687    1.129611
     25          1           0        1.159036    5.734058    0.888333
     26          1           0       -0.043753    5.739663   -1.340710
     27          1           0        0.442835    4.497701   -2.514331
     28          7           0        3.781836    0.980777    0.916043
     29          7           0        3.855973    2.747840   -0.872323
     30          8           0        4.686891    3.529295   -0.442692
     31          8           0        3.906733   -0.126432    0.425245
     32          8           0        3.711324    2.446078   -2.040704
     33          8           0        4.245793    1.335484    1.984492
 ---------------------------------------------------------------------

 SCF Done:  E(RwB97XD) =  -917.408597760     A.U. after   19 cycles

 Alpha  occ. eigenvalues --  -19.31355 -19.31268 -19.30932 -19.30860 -14.68181
 Alpha  occ. eigenvalues --  -14.68000 -14.46393 -10.36576 -10.32913 -10.32622
 Alpha  occ. eigenvalues --  -10.32566 -10.32251 -10.31370 -10.31189 -10.30934
 Alpha  occ. eigenvalues --  -10.28531 -10.28313 -10.28217  -6.96334  -1.36835
 Alpha  occ. eigenvalues --   -1.36049  -1.19312  -1.18872  -1.07568  -0.98559
 Alpha  occ. eigenvalues --   -0.91760  -0.89789  -0.87146  -0.86546  -0.85565
 Alpha  occ. eigenvalues --   -0.80392  -0.76821  -0.74962  -0.72355  -0.71117
 Alpha  occ. eigenvalues --   -0.68880  -0.67209  -0.66944  -0.65568  -0.64031
 Alpha  occ. eigenvalues --   -0.63398  -0.62998  -0.62736  -0.59909  -0.58475
 Alpha  occ. eigenvalues --   -0.56914  -0.56076  -0.55032  -0.53481  -0.52720
 Alpha  occ. eigenvalues --   -0.51723  -0.50953  -0.49579  -0.47478  -0.46946
 Alpha  occ. eigenvalues --   -0.46092  -0.44199  -0.43514  -0.42799  -0.42673
 Alpha  occ. eigenvalues --   -0.41839  -0.41547  -0.41136  -0.40890  -0.40753
 Alpha  occ. eigenvalues --   -0.39809  -0.37762  -0.36744  -0.31175
 Alpha virt. eigenvalues --   -0.04513  -0.03481  -0.01152   0.03278   0.03653
 Alpha virt. eigenvalues --    0.04522   0.05130   0.05508   0.06281   0.06381
 Alpha virt. eigenvalues --    0.06792   0.07598   0.07930   0.08242   0.08646

 Mulliken charges:
               1
     1  C   -0.450909
     2  C   -0.412577
     3  C   -0.112264
     4  C    0.015689
     5  C   -0.029780
     6  C   -0.384206
     7  H    0.235899
     8  H    0.279899
     9  H    0.207376
    10  H    0.259174
    11  B    0.516463
    12  C   -0.102296
    13  C   -0.351710
    14  C   -0.574453
    15  C   -0.389589
    16  C   -0.432556
    17  H    0.207163
    18  H    0.182285
    19  H    0.210074
    20  H    0.181408
    21  H    0.203370
    22  H    0.143666
    23  N    0.480892
    24  H    0.213413
    25  H    0.219656
    26  H    0.176959
    27  H    0.200372
    28  N   -0.569895
    29  N   -0.809080
    30  O    0.221670
    31  O    0.161491
    32  O    0.211933
    33  O    0.090463
 Sum of Mulliken charges =  -0.00000

 Dipole moment (field-independent basis, Debye):
    X=             -7.3261    Y=              3.3408    Z=             -0.0430  Tot=              8.0521
 Quadrupole moment (field-independent basis, Debye-Ang):
   XX=           -140.6910   YY=            -88.0437   ZZ=           -117.2114
   XY=             -7.6589   XZ=              0.3250   YZ=             -3.7132

 ESP charges:
               1
     1  C   -0.149102
     2  C   -0.074386
     3  C   -0.176409
     4  C    0.351491
     5  C   -0.215136
     6  C   -0.015238
     7  H    0.124498
     8  H    0.128176
     9  H    0.118202
    10  H    0.118001
    11  B    0.115199
    12  C    0.178697
    13  C    0.263131
    14  C   -0.086977
    15  C   -0.027262
    16  C   -0.030118
    17  H    0.026100
    18  H    0.057748
    19  H    0.017141
    20  H    0.037971
    21  H    0.024780
    22  H    0.015514
    23  N   -0.440318
    24  H   -0.045952
    25  H   -0.033444
    26  H    0.017284
    27  H    0.010090
    28  N    0.775826
    29  N    0.724619
    30  O   -0.434120
    31  O   -0.462453
    32  O   -0.457965
    33  O   -0.455589
 Sum of ESP charges =  -0.00000

 Normal termination of Gaussian 16 at Thu Apr 11 15:16:26 2024.
