 Gaussian 16, Revision C.02,
 Gaussian 16:  AS64L-G16RevC.02  7-Dec-2021

 ----------------------------------------------------------------------
 # wb97xd/genecp scrf=(solvent=toluene,pcm) nosymm pop=(chelpg) scfcyc=
 300
 ----------------------------------------------------------------------

 -----------------------
 no2_nmeimidazole_chelpg
 -----------------------
 Symbolic Z-matrix:
 Charge =  0 Multiplicity = 1

                          Input orientation:
 ---------------------------------------------------------------------
 Center     Atomic      Atomic             Coordinates (Angstroms)
 Number     Number       Type             X           Y           Z
 ---------------------------------------------------------------------
      1          6           0        2.718403    1.634587    1.082312
      2          1           0        2.817185    2.223830    1.981157
      3          6           0        3.197234    0.370733    0.756051
      4          7           0        2.031389    2.067181    0.011027
      5          7           0        2.783390    0.046640   -0.532114
      6          5           0        4.008756   -0.535310    1.604461
      7          6           0        1.296563    3.318575   -0.113432
      8          1           0        1.331314    3.650718   -1.149869
      9          1           0        0.259075    3.178550    0.191523
     10          1           0        1.764907    4.072482    0.516488
     11          6           0        2.098521    1.069112   -0.937604
     12          1           0        1.620568    1.176632   -1.900645
     13          7           0        4.520019   -0.135660    2.989441
     14          7           0        4.410003   -1.943339    1.184978
     15          8           0        3.688828   -2.839317    1.589432
     16          8           0        5.396610   -2.084628    0.492361
     17          8           0        5.715940    0.075351    3.085011
     18          8           0        3.711249   -0.028614    3.893064
 ---------------------------------------------------------------------

 SCF Done:  E(RwB97XD) =  -699.999757228     A.U. after   16 cycles

 Alpha  occ. eigenvalues --  -19.31519 -19.31503 -19.31014 -19.30905 -14.68559
 Alpha  occ. eigenvalues --  -14.67967 -14.54198 -14.45689 -10.37616 -10.37175
 Alpha  occ. eigenvalues --  -10.35759 -10.33220  -6.96371  -1.37008  -1.36177
 Alpha  occ. eigenvalues --   -1.19526  -1.18989  -1.17396  -1.03384  -0.90602
 Alpha  occ. eigenvalues --   -0.87743  -0.84449  -0.80694  -0.74489  -0.71324
 Alpha  occ. eigenvalues --   -0.68961  -0.67584  -0.66949  -0.64486  -0.63626
 Alpha  occ. eigenvalues --   -0.63197  -0.62727  -0.60380  -0.57613  -0.55631
 Alpha  occ. eigenvalues --   -0.53257  -0.52535  -0.52056  -0.43754  -0.42970
 Alpha  occ. eigenvalues --   -0.42272  -0.42048  -0.41116  -0.40314  -0.39989
 Alpha  occ. eigenvalues --   -0.39577  -0.35943
 Alpha virt. eigenvalues --   -0.04388  -0.02945  -0.00865   0.03101   0.04474
 Alpha virt. eigenvalues --    0.05012   0.05990   0.07405   0.07799   0.08228
 Alpha virt. eigenvalues --    0.08496   0.08896   0.10370   0.11056   0.11736

 Mulliken charges:
               1
     1  C   -0.309081
     2  H    0.256771
     3  C   -0.478976
     4  N    0.060466
     5  N   -0.065471
     6  B    0.679040
     7  C   -0.398773
     8  H    0.189790
     9  H    0.231155
    10  H    0.196656
    11  C    0.029803
    12  H    0.271297
    13  N   -0.481140
    14  N   -0.435464
    15  O    0.049823
    16  O    0.092092
    17  O    0.044454
    18  O    0.067557
 Sum of Mulliken charges =  -0.00000

 Dipole moment (field-independent basis, Debye):
    X=             -6.0188    Y=              9.3359    Z=             -3.2486  Tot=             11.5732
 Quadrupole moment (field-independent basis, Debye-Ang):
   XX=           -115.0233   YY=            -64.5226   ZZ=            -85.8588
   XY=             22.2669   XZ=            -13.1642   YZ=              1.5289

 ESP charges:
               1
     1  C   -0.289863
     2  H    0.226273
     3  C    0.230902
     4  N    0.190707
     5  N   -0.574701
     6  B    0.012641
     7  C   -0.309790
     8  H    0.126633
     9  H    0.143274
    10  H    0.159351
    11  C    0.221696
    12  H    0.116610
    13  N    0.733804
    14  N    0.833794
    15  O   -0.467794
    16  O   -0.464921
    17  O   -0.440553
    18  O   -0.448062
 Sum of ESP charges =  -0.00000

 Normal termination of Gaussian 16 at Thu Apr 11 15:16:55 2024.
