 Gaussian 16, Revision C.02,
 Gaussian 16:  AS64L-G16RevC.02  7-Dec-2021

 ----------------------------------------------------------------------
 # wb97xd/genecp scrf=(solvent=toluene,pcm) nosymm pop=(chelpg) scfcyc=
 300
 ----------------------------------------------------------------------

 ---------------------
 no2_metriazole_chelpg
 ---------------------
 Symbolic Z-matrix:
 Charge =  0 Multiplicity = 1

                          Input orientation:
 ---------------------------------------------------------------------
 Center     Atomic      Atomic             Coordinates (Angstroms)
 Number     Number       Type             X           Y           Z
 ---------------------------------------------------------------------
      1          6           0        2.576476    1.626464    1.184571
      2          1           0        2.531384    2.108705    2.147546
      3          6           0        3.194132    0.457704    0.755828
      4          7           0        1.975305    2.109794    0.103405
      5          7           0        2.190345    1.300189   -0.967866
      6          7           0        2.911849    0.320160   -0.585969
      7          5           0        4.002970   -0.531649    1.521553
      8          6           0        1.176022    3.314442   -0.050693
      9          1           0        1.672272    3.989597   -0.746175
     10          1           0        0.193428    3.043635   -0.433274
     11          1           0        1.077457    3.790002    0.922757
     12          7           0        4.345195   -0.334205    2.995022
     13          8           0        3.464406   -0.530078    3.811120
     14          8           0        5.478076    0.033422    3.245088
     15          7           0        4.548935   -1.815839    0.917904
     16          8           0        5.607421   -1.767575    0.326537
     17          8           0        3.864956   -2.809251    1.086696
 ---------------------------------------------------------------------

 SCF Done:  E(RwB97XD) =  -716.000373156     A.U. after   18 cycles

 Alpha  occ. eigenvalues --  -19.32446 -19.32441 -19.31895 -19.31812 -14.69505
 Alpha  occ. eigenvalues --  -14.68938 -14.57320 -14.53491 -14.50524 -10.38864
 Alpha  occ. eigenvalues --  -10.36059 -10.34703  -6.98179  -1.37982  -1.37136
 Alpha  occ. eigenvalues --   -1.25697  -1.20554  -1.19981  -1.07232  -0.95935
 Alpha  occ. eigenvalues --   -0.88959  -0.87040  -0.81799  -0.77821  -0.73390
 Alpha  occ. eigenvalues --   -0.69930  -0.68525  -0.67924  -0.65259  -0.64511
 Alpha  occ. eigenvalues --   -0.64144  -0.63563  -0.62816  -0.58915  -0.56545
 Alpha  occ. eigenvalues --   -0.54214  -0.53666  -0.46813  -0.44891  -0.43861
 Alpha  occ. eigenvalues --   -0.43134  -0.42794  -0.42307  -0.41979  -0.41109
 Alpha  occ. eigenvalues --   -0.39664  -0.38976
 Alpha virt. eigenvalues --   -0.05169  -0.04045  -0.01950   0.02347   0.03172
 Alpha virt. eigenvalues --    0.05481   0.06255   0.06742   0.08159   0.08342
 Alpha virt. eigenvalues --    0.08448   0.10144   0.11056   0.11326   0.12942

 Mulliken charges:
               1
     1  C   -0.289784
     2  H    0.284272
     3  C   -0.490642
     4  N    0.172577
     5  N    0.093825
     6  N   -0.118976
     7  B    0.737384
     8  C   -0.393465
     9  H    0.230884
    10  H    0.227467
    11  H    0.192739
    12  N   -0.468742
    13  O    0.073967
    14  O    0.050160
    15  N   -0.497359
    16  O    0.117309
    17  O    0.078384
 Sum of Mulliken charges =  -0.00000

 Dipole moment (field-independent basis, Debye):
    X=             -4.9736    Y=              8.3188    Z=              0.3796  Tot=              9.6997
 Quadrupole moment (field-independent basis, Debye-Ang):
   XX=           -107.3281   YY=            -61.2769   ZZ=            -87.3021
   XY=             18.8522   XZ=             -4.6531   YZ=              6.0913

 ESP charges:
               1
     1  C   -0.380092
     2  H    0.222644
     3  C    0.267640
     4  N    0.658037
     5  N   -0.317305
     6  N   -0.265406
     7  B   -0.004277
     8  C   -0.574951
     9  H    0.197245
    10  H    0.197675
    11  H    0.212278
    12  N    0.833690
    13  O   -0.464294
    14  O   -0.456758
    15  N    0.712209
    16  O   -0.418689
    17  O   -0.419645
 Sum of ESP charges =  -0.00000

 Normal termination of Gaussian 16 at Mon Apr  8 16:07:48 2024.
