 Gaussian 16, Revision C.02,
 Gaussian 16:  AS64L-G16RevC.02  7-Dec-2021

 ----------------------------------------------------------------------
 # wb97xd/genecp scrf=(solvent=toluene,pcm) nosymm pop=(chelpg) scfcyc=
 300
 ----------------------------------------------------------------------

 --------------------
 no2_quinoline_chelpg
 --------------------
 Symbolic Z-matrix:
 Charge =  0 Multiplicity = 1

                          Input orientation:
 ---------------------------------------------------------------------
 Center     Atomic      Atomic             Coordinates (Angstroms)
 Number     Number       Type             X           Y           Z
 ---------------------------------------------------------------------
      1          6           0       -4.002519    0.027693    0.298477
      2          6           0       -2.635124    0.051942    0.050905
      3          6           0       -1.976654    1.321131   -0.072575
      4          6           0       -2.733996    2.510252    0.058910
      5          6           0       -4.124764    2.425097    0.309144
      6          6           0       -4.748518    1.209857    0.427475
      7          1           0       -4.520661   -0.919385    0.404115
      8          6           0       -2.054160    3.744701   -0.068622
      9          1           0       -4.693979    3.343843    0.407083
     10          1           0       -5.812385    1.154835    0.620482
     11          6           0       -0.709542    3.740710   -0.310443
     12          6           0       -0.047568    2.498122   -0.424051
     13          1           0       -2.607292    4.672962    0.027082
     14          1           0       -0.148758    4.660722   -0.415044
     15          1           0        1.021519    2.472379   -0.615484
     16          7           0       -0.644773    1.336205   -0.312618
     17          5           0       -1.883260   -1.250437   -0.074330
     18          7           0       -0.388159   -1.459227   -0.275832
     19          7           0       -2.615647   -2.592980    0.005758
     20          8           0        0.023966   -1.571317   -1.412134
     21          8           0        0.277409   -1.551885    0.738845
     22          8           0       -2.849231   -3.044192    1.111831
     23          8           0       -2.930760   -3.109659   -1.050459
 ---------------------------------------------------------------------

 SCF Done:  E(RwB97XD) =  -836.362832070     A.U. after   18 cycles

 Alpha  occ. eigenvalues --  -19.31594 -19.31574 -19.30767 -19.30748 -14.68493
 Alpha  occ. eigenvalues --  -14.67885 -14.45563 -10.36466 -10.35172 -10.34414
 Alpha  occ. eigenvalues --  -10.33884 -10.33535 -10.33413 -10.32413 -10.32367
 Alpha  occ. eigenvalues --  -10.31993  -6.97125  -1.37075  -1.36038  -1.19618
 Alpha  occ. eigenvalues --   -1.18870  -1.08450  -0.99334  -0.94517  -0.89396
 Alpha  occ. eigenvalues --   -0.88927  -0.86353  -0.80546  -0.77404  -0.75917
 Alpha  occ. eigenvalues --   -0.73977  -0.69001  -0.67495  -0.66574  -0.65060
 Alpha  occ. eigenvalues --   -0.63515  -0.63433  -0.63326  -0.62732  -0.62588
 Alpha  occ. eigenvalues --   -0.57741  -0.55823  -0.55002  -0.54143  -0.52695
 Alpha  occ. eigenvalues --   -0.51642  -0.47984  -0.46951  -0.46617  -0.44149
 Alpha  occ. eigenvalues --   -0.43173  -0.42326  -0.41876  -0.41401  -0.40979
 Alpha  occ. eigenvalues --   -0.39771  -0.36990  -0.35967  -0.34834
 Alpha virt. eigenvalues --   -0.05977  -0.03648  -0.00999   0.00190   0.01418
 Alpha virt. eigenvalues --    0.03345   0.04305   0.05342   0.06560   0.06872
 Alpha virt. eigenvalues --    0.07261   0.08074   0.08136   0.08886   0.09428

 Mulliken charges:
               1
     1  C   -0.133385
     2  C   -0.275586
     3  C   -0.980866
     4  C    0.575415
     5  C   -0.472340
     6  C   -0.457539
     7  H    0.277288
     8  C    0.769944
     9  H    0.219153
    10  H    0.255407
    11  C   -0.709096
    12  C    0.051922
    13  H    0.260352
    14  H    0.247112
    15  H    0.269080
    16  N    0.161491
    17  B    0.661362
    18  N   -0.612427
    19  N   -0.627723
    20  O    0.144479
    21  O    0.124328
    22  O    0.134653
    23  O    0.116975
 Sum of Mulliken charges =  -0.00000

 Dipole moment (field-independent basis, Debye):
    X=             -4.1075    Y=              9.4021    Z=              0.6375  Tot=             10.2799
 Quadrupole moment (field-independent basis, Debye-Ang):
   XX=            -73.7829   YY=            -86.6010   ZZ=           -104.3750
   XY=            -18.2043   XZ=             -3.4960   YZ=             -1.0528

 ESP charges:
               1
     1  C   -0.102862
     2  C   -0.193520
     3  C    0.401108
     4  C    0.040623
     5  C   -0.176230
     6  C   -0.033983
     7  H    0.149864
     8  C   -0.063678
     9  H    0.152459
    10  H    0.110795
    11  C   -0.237495
    12  C    0.299604
    13  H    0.134530
    14  H    0.139588
    15  H    0.065807
    16  N   -0.522507
    17  B    0.131711
    18  N    0.770922
    19  N    0.784114
    20  O   -0.459499
    21  O   -0.463897
    22  O   -0.464262
    23  O   -0.463192
 Sum of ESP charges =  -0.00000

 Normal termination of Gaussian 16 at Thu Apr 11 15:04:13 2024.
