 Gaussian 16, Revision C.02,
 Gaussian 16:  AS64L-G16RevC.02  7-Dec-2021

 ----------------------------------------------------------------------
 # wb97xd/genecp scrf=(solvent=toluene,pcm) nosymm pop=(chelpg) scfcyc=
 300
 ----------------------------------------------------------------------

 ----------------------
 no2_naphthalene_chelpg
 ----------------------
 Symbolic Z-matrix:
 Charge =  0 Multiplicity = 1

                          Input orientation:
 ---------------------------------------------------------------------
 Center     Atomic      Atomic             Coordinates (Angstroms)
 Number     Number       Type             X           Y           Z
 ---------------------------------------------------------------------
      1          6           0       -5.358134   -0.814583    0.486596
      2          6           0       -4.039592   -0.798211    0.150712
      3          6           0       -3.335380    0.400321   -0.026463
      4          6           0       -3.971744    1.644451    0.094875
      5          6           0       -5.347665    1.630869    0.447137
      6          6           0       -6.003714    0.441542    0.647535
      7          1           0       -5.917257   -1.731995    0.625146
      8          6           0       -1.965748    0.234340   -0.319003
      9          6           0       -3.162944    2.784410   -0.142104
     10          1           0       -5.879644    2.568837    0.563534
     11          1           0       -7.051006    0.449277    0.925359
     12          6           0       -1.833341    2.633870   -0.461439
     13          6           0       -1.214836    1.359655   -0.539642
     14          1           0       -3.597868    3.775336   -0.068060
     15          1           0       -1.230785    3.516921   -0.642592
     16          1           0       -0.156422    1.288617   -0.761307
     17          5           0       -1.671521   -1.306154   -0.117574
     18          7           0       -3.176388   -1.953581   -0.187671
     19          6           0       -3.425598   -3.150365    0.670992
     20          1           0       -4.406300   -3.559537    0.428942
     21          1           0       -2.655985   -3.887971    0.449645
     22          1           0       -3.383598   -2.854313    1.714031
     23          6           0       -3.489934   -2.326998   -1.613190
     24          1           0       -2.916839   -3.210956   -1.882128
     25          1           0       -4.556539   -2.532938   -1.684512
     26          1           0       -3.233771   -1.492348   -2.264691
     27          7           0       -0.707691   -2.063153   -1.119340
     28          7           0       -1.019999   -1.506905    1.325164
     29          8           0       -1.738281   -1.404591    2.309937
     30          8           0        0.188037   -1.644480    1.390544
     31          8           0       -0.041212   -1.418453   -1.905933
     32          8           0       -0.671194   -3.287370   -1.052018
 ---------------------------------------------------------------------

 SCF Done:  E(RwB97XD) =  -954.349210774     A.U. after   17 cycles

 Alpha  occ. eigenvalues --  -19.28965 -19.28600 -19.28593 -19.28436 -14.65463
 Alpha  occ. eigenvalues --  -14.65348 -14.56396 -10.35954 -10.35172 -10.34375
 Alpha  occ. eigenvalues --  -10.32365 -10.32034 -10.31574 -10.31557 -10.31336
 Alpha  occ. eigenvalues --  -10.30881 -10.30730 -10.30628 -10.29537  -6.92657
 Alpha  occ. eigenvalues --   -1.34238  -1.33456  -1.16385  -1.16253  -1.12634
 Alpha  occ. eigenvalues --   -1.00612  -0.95059  -0.91032  -0.87185  -0.85978
 Alpha  occ. eigenvalues --   -0.85770  -0.82966  -0.79993  -0.76805  -0.74561
 Alpha  occ. eigenvalues --   -0.73317  -0.70674  -0.68019  -0.65816  -0.64125
 Alpha  occ. eigenvalues --   -0.63695  -0.62864  -0.62513  -0.61635  -0.60890
 Alpha  occ. eigenvalues --   -0.60462  -0.59240  -0.58864  -0.58568  -0.55160
 Alpha  occ. eigenvalues --   -0.53318  -0.53074  -0.52428  -0.51444  -0.50936
 Alpha  occ. eigenvalues --   -0.50597  -0.50067  -0.48397  -0.47510  -0.44299
 Alpha  occ. eigenvalues --   -0.44034  -0.42754  -0.40818  -0.40313  -0.39915
 Alpha  occ. eigenvalues --   -0.39612  -0.38537  -0.38228  -0.37730  -0.34279
 Alpha  occ. eigenvalues --   -0.31211
 Alpha virt. eigenvalues --   -0.01619  -0.00737   0.00223   0.02333   0.03295
 Alpha virt. eigenvalues --    0.04331   0.04900   0.05576   0.06139   0.06312
 Alpha virt. eigenvalues --    0.06816   0.07430   0.08232   0.08494   0.08973

 Mulliken charges:
               1
     1  C   -0.287657
     2  C   -0.015553
     3  C   -0.087407
     4  C    0.205833
     5  C   -0.284245
     6  C   -0.395596
     7  H    0.224084
     8  C   -0.065967
     9  C   -0.261876
    10  H    0.205547
    11  H    0.252239
    12  C   -0.412584
    13  C   -0.150204
    14  H    0.212521
    15  H    0.245188
    16  H    0.273562
    17  B    0.495513
    18  N   -0.083694
    19  C   -0.288694
    20  H    0.191033
    21  H    0.270662
    22  H    0.257789
    23  C   -0.452910
    24  H    0.253690
    25  H    0.243608
    26  H    0.244584
    27  N   -0.656054
    28  N   -0.443373
    29  O   -0.005004
    30  O    0.109527
    31  O    0.142883
    32  O    0.062553
 Sum of Mulliken charges =  -0.00000

 Dipole moment (field-independent basis, Debye):
    X=             -9.5974    Y=              1.2770    Z=             -1.6689  Tot=              9.8248
 Quadrupole moment (field-independent basis, Debye-Ang):
   XX=            -68.9058   YY=           -102.3328   ZZ=           -127.6424
   XY=             17.1267   XZ=              3.6485   YZ=              0.6461

 ESP charges:
               1
     1  C   -0.196011
     2  C    0.117505
     3  C    0.030392
     4  C    0.227683
     5  C   -0.286279
     6  C   -0.043101
     7  H    0.158324
     8  C   -0.088847
     9  C   -0.267867
    10  H    0.161215
    11  H    0.110845
    12  C   -0.041722
    13  C   -0.127581
    14  H    0.150382
    15  H    0.105884
    16  H    0.128240
    17  B    0.074151
    18  N   -0.044015
    19  C   -0.280022
    20  H    0.130274
    21  H    0.147309
    22  H    0.167829
    23  C   -0.134540
    24  H    0.147898
    25  H    0.099303
    26  H    0.064817
    27  N    0.715586
    28  N    0.720220
    29  O   -0.514528
    30  O   -0.464297
    31  O   -0.475130
    32  O   -0.493916
 Sum of ESP charges =   0.00000

 Normal termination of Gaussian 16 at Thu Apr 11 16:29:52 2024.
