 Gaussian 16, Revision C.02,
 Gaussian 16:  AS64L-G16RevC.02  7-Dec-2021

 ----------------------------------------------------------------------
 # wb97xd/genecp scrf=(solvent=toluene,pcm) nosymm pop=(chelpg) scfcyc=
 300
 ----------------------------------------------------------------------

 --------------------
 oh_metriazole_chelpg
 --------------------
 Symbolic Z-matrix:
 Charge =  0 Multiplicity = 1

                          Input orientation:
 ---------------------------------------------------------------------
 Center     Atomic      Atomic             Coordinates (Angstroms)
 Number     Number       Type             X           Y           Z
 ---------------------------------------------------------------------
      1          6           0        2.619232    1.636273    1.161936
      2          1           0        2.712145    2.199750    2.075548
      3          6           0        3.110997    0.405344    0.781379
      4          7           0        1.925582    2.082514    0.101931
      5          7           0        1.972391    1.186751   -0.898915
      6          7           0        2.678595    0.183274   -0.498880
      7          5           0        3.989483   -0.582262    1.600150
      8          6           0        1.199397    3.327369   -0.059174
      9          1           0        1.882681    4.173832    0.014741
     10          1           0        0.742816    3.312214   -1.046528
     11          1           0        0.423010    3.409208    0.701739
     12          8           0        4.322672   -0.191608    2.872108
     13          1           0        4.863934   -0.806010    3.369350
     14          8           0        4.374463   -1.756352    1.025504
     15          1           0        4.915781   -2.329874    1.569120
 ---------------------------------------------------------------------

 SCF Done:  E(RwB97XD) =  -457.550298163     A.U. after   15 cycles

 Alpha  occ. eigenvalues --  -19.27047 -19.26718 -14.52991 -14.49065 -14.45392
 Alpha  occ. eigenvalues --  -10.33541 -10.33152 -10.29202  -6.89937  -1.21147
 Alpha  occ. eigenvalues --   -1.15519  -1.12057  -1.02496  -0.90844  -0.84066
 Alpha  occ. eigenvalues --   -0.73687  -0.69562  -0.67228  -0.64380  -0.61790
 Alpha  occ. eigenvalues --   -0.59144  -0.53966  -0.53521  -0.51411  -0.51369
 Alpha  occ. eigenvalues --   -0.48845  -0.47946  -0.44239  -0.42361  -0.41527
 Alpha  occ. eigenvalues --   -0.37595  -0.35667  -0.34415
 Alpha virt. eigenvalues --    0.03764   0.04401   0.05172   0.06466   0.06603
 Alpha virt. eigenvalues --    0.07473   0.07963   0.08160   0.08842   0.09527
 Alpha virt. eigenvalues --    0.11203   0.11502   0.13082   0.14712   0.15845

 Mulliken charges:
               1
     1  C   -0.545640
     2  H    0.239549
     3  C   -0.269263
     4  N    0.251808
     5  N   -0.057129
     6  N   -0.198759
     7  B    0.548741
     8  C   -0.402163
     9  H    0.199903
    10  H    0.207346
    11  H    0.196628
    12  O   -0.428918
    13  H    0.294340
    14  O   -0.325286
    15  H    0.288843
 Sum of Mulliken charges =  -0.00000

 Dipole moment (field-independent basis, Debye):
    X=              0.8801    Y=              2.4324    Z=              5.0341  Tot=              5.6598
 Quadrupole moment (field-independent basis, Debye-Ang):
   XX=            -38.5833   YY=            -33.6863   ZZ=            -47.4325
   XY=             -4.9741   XZ=             20.0385   YZ=             -5.2076

 ESP charges:
               1
     1  C   -0.409625
     2  H    0.203115
     3  C    0.207539
     4  N    0.575543
     5  N   -0.374024
     6  N   -0.317606
     7  B    0.710178
     8  C   -0.300880
     9  H    0.119411
    10  H    0.109382
    11  H    0.118849
    12  O   -0.770854
    13  H    0.452222
    14  O   -0.803617
    15  H    0.480366
 Sum of ESP charges =   0.00000

 Normal termination of Gaussian 16 at Wed Apr 10 15:10:27 2024.
