 Gaussian 16, Revision C.02,
 Gaussian 16:  AS64L-G16RevC.02  7-Dec-2021

 ----------------------------------------------------------------------
 # wb97xd/genecp scrf=(solvent=toluene,pcm) nosymm pop=(chelpg) scfcyc=
 300
 ----------------------------------------------------------------------

 ---------------------------------
 perfluorophenyl_metriazole_chelpg
 ---------------------------------
 Symbolic Z-matrix:
 Charge =  0 Multiplicity = 1

                          Input orientation:
 ---------------------------------------------------------------------
 Center     Atomic      Atomic             Coordinates (Angstroms)
 Number     Number       Type             X           Y           Z
 ---------------------------------------------------------------------
      1          6           0        2.808527    1.719458    1.068751
      2          1           0        3.085540    2.379760    1.874097
      3          6           0        3.097147    0.386272    0.820809
      4          7           0        2.048015    2.113824    0.046991
      5          7           0        1.856619    1.091972   -0.821563
      6          7           0        2.473181    0.066679   -0.365316
      7          5           0        3.922485   -0.609362    1.623467
      8          6           0        1.416532    3.399362   -0.191672
      9          1           0        1.391065    3.573129   -1.265413
     10          1           0        0.400865    3.396755    0.204714
     11          1           0        2.003040    4.177787    0.293123
     12          6           0        3.897199   -2.135598    1.245153
     13          6           0        2.713840   -2.851293    1.103241
     14          6           0        5.075054   -2.840323    1.030803
     15          6           0        2.695152   -4.192903    0.761753
     16          9           0        1.542160   -2.264938    1.350349
     17          6           0        5.093829   -4.176583    0.670809
     18          9           0        6.252665   -2.213763    1.143579
     19          6           0        3.892579   -4.854902    0.538221
     20          9           0        1.546782   -4.853063    0.652957
     21          9           0        6.241803   -4.810729    0.453271
     22          9           0        3.888734   -6.137022    0.203200
     23          6           0        4.813929   -0.140306    2.837130
     24          6           0        4.760915   -0.802775    4.059886
     25          6           0        5.715135    0.916199    2.753130
     26          6           0        5.539577   -0.439890    5.145291
     27          9           0        3.911965   -1.820601    4.227530
     28          6           0        6.522565    1.296164    3.812372
     29          9           0        5.860129    1.588243    1.607113
     30          6           0        6.428906    0.615641    5.016165
     31          9           0        5.443630   -1.086623    6.301179
     32          9           0        7.383104    2.300676    3.686504
     33          9           0        7.186388    0.974107    6.041104
 ---------------------------------------------------------------------

 SCF Done:  E(RwB97XD) =  -1761.40220817     A.U. after   16 cycles

 Alpha  occ. eigenvalues --  -24.86920 -24.86354 -24.86299 -24.86185 -24.85925
 Alpha  occ. eigenvalues --  -24.85899 -24.85655 -24.85496 -24.85361 -24.84866
 Alpha  occ. eigenvalues --  -14.55182 -14.51312 -14.47944 -10.42964 -10.42424
 Alpha  occ. eigenvalues --  -10.42358 -10.42137 -10.42039 -10.42018 -10.41597
 Alpha  occ. eigenvalues --  -10.41505 -10.41242 -10.41143 -10.36125 -10.34874
 Alpha  occ. eigenvalues --  -10.33068 -10.32221 -10.31536  -6.90264  -1.39730
 Alpha  occ. eigenvalues --   -1.38946  -1.38746  -1.38215  -1.37952  -1.37401
 Alpha  occ. eigenvalues --   -1.37228  -1.37034  -1.36487  -1.36181  -1.23394
 Alpha  occ. eigenvalues --   -1.04911  -1.02673  -1.01844  -0.93395  -0.91141
 Alpha  occ. eigenvalues --   -0.90141  -0.89975  -0.89330  -0.85731  -0.79917
 Alpha  occ. eigenvalues --   -0.78323  -0.78163  -0.77427  -0.75417  -0.71754
 Alpha  occ. eigenvalues --   -0.71359  -0.70855  -0.70638  -0.70131  -0.69542
 Alpha  occ. eigenvalues --   -0.68646  -0.66008  -0.65925  -0.65325  -0.65244
 Alpha  occ. eigenvalues --   -0.64744  -0.64181  -0.63461  -0.62931  -0.62288
 Alpha  occ. eigenvalues --   -0.61318  -0.60954  -0.60884  -0.60441  -0.60066
 Alpha  occ. eigenvalues --   -0.59367  -0.58200  -0.57855  -0.57430  -0.57097
 Alpha  occ. eigenvalues --   -0.56444  -0.55728  -0.55478  -0.54958  -0.54781
 Alpha  occ. eigenvalues --   -0.54369  -0.53438  -0.52606  -0.52430  -0.51983
 Alpha  occ. eigenvalues --   -0.51621  -0.49679  -0.49326  -0.48638  -0.47584
 Alpha  occ. eigenvalues --   -0.46051  -0.45714  -0.43832  -0.40106  -0.38086
 Alpha  occ. eigenvalues --   -0.37765  -0.35947  -0.35402  -0.35178  -0.34536
 Alpha virt. eigenvalues --   -0.03907   0.01959   0.02760   0.03267   0.03710
 Alpha virt. eigenvalues --    0.03914   0.04309   0.04370   0.05281   0.06146
 Alpha virt. eigenvalues --    0.06385   0.07169   0.07913   0.08144   0.08788

 Mulliken charges:
               1
     1  C   -0.750471
     2  H    0.277589
     3  C   -0.567541
     4  N    0.219069
     5  N    0.188132
     6  N   -0.109016
     7  B    0.812226
     8  C   -0.362333
     9  H    0.216204
    10  H    0.224737
    11  H    0.192244
    12  C    1.836630
    13  C   -0.436482
    14  C   -0.811982
    15  C   -0.159726
    16  F   -0.091588
    17  C   -0.330230
    18  F   -0.081159
    19  C    0.565381
    20  F   -0.167888
    21  F   -0.167000
    22  F   -0.171049
    23  C    1.475011
    24  C   -0.482740
    25  C   -0.769719
    26  C   -0.141277
    27  F   -0.068082
    28  C   -0.239711
    29  F   -0.094692
    30  C    0.493866
    31  F   -0.164908
    32  F   -0.167779
    33  F   -0.165718
 Sum of Mulliken charges =  -0.00000

 Dipole moment (field-independent basis, Debye):
    X=             -1.6966    Y=              6.9648    Z=              1.2103  Tot=              7.2700
 Quadrupole moment (field-independent basis, Debye-Ang):
   XX=           -178.8587   YY=           -153.5994   ZZ=           -166.2097
   XY=             11.1793   XZ=             -2.8419   YZ=              3.9074

 ESP charges:
               1
     1  C   -0.251335
     2  H    0.136897
     3  C   -0.041194
     4  N    0.647412
     5  N   -0.342513
     6  N   -0.260446
     7  B    0.722992
     8  C   -0.515246
     9  H    0.162236
    10  H    0.175730
    11  H    0.190837
    12  C   -0.433263
    13  C    0.127669
    14  C    0.313225
    15  C    0.185937
    16  F   -0.126005
    17  C    0.073526
    18  F   -0.195105
    19  C    0.161280
    20  F   -0.159035
    21  F   -0.135883
    22  F   -0.134546
    23  C   -0.435556
    24  C    0.222909
    25  C    0.285537
    26  C    0.120037
    27  F   -0.162040
    28  C    0.094349
    29  F   -0.186770
    30  C    0.161005
    31  F   -0.139889
    32  F   -0.136029
    33  F   -0.126724
 Sum of ESP charges =   0.00000

 Normal termination of Gaussian 16 at Mon Apr  8 17:18:16 2024.
