 Gaussian 16, Revision C.02,
 Gaussian 16:  AS64L-G16RevC.02  7-Dec-2021

 ----------------------------------------------------------------------
 # wb97xd/genecp scrf=(solvent=toluene,pcm) nosymm pop=(chelpg) scfcyc=
 300
 ----------------------------------------------------------------------

 ---------------------
 ph_biphenylene_chelpg
 ---------------------
 Symbolic Z-matrix:
 Charge =  0 Multiplicity = 1

                          Input orientation:
 ---------------------------------------------------------------------
 Center     Atomic      Atomic             Coordinates (Angstroms)
 Number     Number       Type             X           Y           Z
 ---------------------------------------------------------------------
      1          6           0        1.941366    2.606722   -0.135101
      2          6           0        1.796481    2.778978   -1.535449
      3          6           0        0.804362    3.886205   -1.298404
      4          6           0        0.926629    3.707211    0.095937
      5          6           0        0.041961    4.866887   -1.871045
      6          6           0        0.261769    4.507880    1.009165
      7          6           0       -0.637180    5.696574   -0.953810
      8          1           0       -0.039473    5.018392   -2.939969
      9          6           0       -0.538232    5.527970    0.415671
     10          1           0       -1.269970    6.494007   -1.328700
     11          1           0       -1.104857    6.194197    1.053926
     12          6           0        2.512081    2.058646   -2.444566
     13          1           0        2.420621    2.187425   -3.516530
     14          6           0        3.414666    1.114767   -1.893453
     15          1           0        4.015806    0.505693   -2.559764
     16          6           0        3.558622    0.955616   -0.529952
     17          6           0        2.820871    1.716515    0.431362
     18          1           0        4.279698    0.225367   -0.173895
     19          5           0        3.099450    1.516290    1.968502
     20          7           0        0.389398    4.360582    2.383744
     21          6           0       -0.187282    5.356923    3.259139
     22          1           0       -1.287096    5.308486    3.300457
     23          1           0        0.196445    5.192891    4.268158
     24          1           0        0.110286    6.359997    2.948590
     25          6           0        0.363804    3.018267    2.934563
     26          1           0        1.050525    2.939662    3.781605
     27          1           0       -0.646236    2.744813    3.274255
     28          1           0        0.657138    2.288174    2.182499
     29          6           0        3.910769    2.616875    2.731332
     30          6           0        3.791074    3.971824    2.382516
     31          6           0        4.811083    2.290237    3.758951
     32          6           0        4.497806    4.957199    3.058793
     33          1           0        3.125231    4.264665    1.578960
     34          6           0        5.549324    3.268234    4.413883
     35          1           0        4.951981    1.251029    4.037148
     36          6           0        5.382426    4.606478    4.073678
     37          1           0        4.371365    5.998459    2.783401
     38          1           0        6.250994    2.988210    5.191998
     39          1           0        5.948071    5.373625    4.591545
     40          6           0        2.588053    0.216600    2.680240
     41          6           0        2.427814    0.156748    4.075303
     42          6           0        2.195908   -0.911704    1.940555
     43          6           0        1.920285   -0.973871    4.701579
     44          1           0        2.684402    1.019588    4.680109
     45          6           0        1.708732   -2.054605    2.561034
     46          1           0        2.270533   -0.893052    0.858703
     47          6           0        1.569705   -2.087079    3.944626
     48          1           0        1.796697   -0.988521    5.778863
     49          1           0        1.424426   -2.915568    1.966187
     50          1           0        1.178565   -2.974099    4.431193
 ---------------------------------------------------------------------

 SCF Done:  E(RwB97XD) =  -1083.46365489     A.U. after   17 cycles

 Alpha  occ. eigenvalues --  -14.44882 -10.33448 -10.30942 -10.30838 -10.30202
 Alpha  occ. eigenvalues --  -10.30070 -10.29854 -10.29809 -10.29549 -10.29431
 Alpha  occ. eigenvalues --  -10.29418 -10.29285 -10.29283 -10.29260 -10.29252
 Alpha  occ. eigenvalues --  -10.29215 -10.29064 -10.29044 -10.28970 -10.28961
 Alpha  occ. eigenvalues --  -10.28862 -10.28826 -10.28743 -10.28505 -10.27930
 Alpha  occ. eigenvalues --  -10.27888 -10.27602  -6.85416  -1.05559  -1.00510
 Alpha  occ. eigenvalues --   -0.96493  -0.95967  -0.94431  -0.90041  -0.86577
 Alpha  occ. eigenvalues --   -0.85707  -0.85322  -0.84940  -0.84344  -0.84126
 Alpha  occ. eigenvalues --   -0.82283  -0.80060  -0.76466  -0.72757  -0.71515
 Alpha  occ. eigenvalues --   -0.70920  -0.70392  -0.69806  -0.69209  -0.66553
 Alpha  occ. eigenvalues --   -0.64996  -0.63314  -0.61490  -0.61055  -0.58185
 Alpha  occ. eigenvalues --   -0.57496  -0.56792  -0.56080  -0.55625  -0.54840
 Alpha  occ. eigenvalues --   -0.54302  -0.54006  -0.53818  -0.53312  -0.52944
 Alpha  occ. eigenvalues --   -0.51253  -0.51110  -0.50415  -0.49849  -0.49277
 Alpha  occ. eigenvalues --   -0.49106  -0.48403  -0.47931  -0.47814  -0.46692
 Alpha  occ. eigenvalues --   -0.46309  -0.45994  -0.45278  -0.44415  -0.43670
 Alpha  occ. eigenvalues --   -0.42901  -0.42686  -0.42307  -0.41295  -0.39911
 Alpha  occ. eigenvalues --   -0.38436  -0.37775  -0.36888  -0.34932  -0.33839
 Alpha  occ. eigenvalues --   -0.33479  -0.33014  -0.32455  -0.28565  -0.26405
 Alpha virt. eigenvalues --   -0.01141   0.01151   0.03245   0.03679   0.04323
 Alpha virt. eigenvalues --    0.04448   0.04597   0.04804   0.05162   0.05441
 Alpha virt. eigenvalues --    0.05646   0.05769   0.06009   0.06410   0.06950

 Mulliken charges:
               1
     1  C    0.057067
     2  C   -0.023288
     3  C    0.222489
     4  C   -0.261788
     5  C   -0.347418
     6  C    0.112682
     7  C   -0.443289
     8  H    0.208146
     9  C   -0.458514
    10  H    0.234387
    11  H    0.190173
    12  C   -0.209613
    13  H    0.227140
    14  C   -0.370145
    15  H    0.232999
    16  C   -0.287164
    17  C    0.597597
    18  H    0.228182
    19  B   -0.941042
    20  N    0.386598
    21  C   -0.413451
    22  H    0.186138
    23  H    0.165422
    24  H    0.164598
    25  C   -0.565091
    26  H    0.210204
    27  H    0.201498
    28  H    0.197863
    29  C    0.670922
    30  C    0.029310
    31  C   -0.219128
    32  C   -0.556520
    33  H    0.189307
    34  C   -0.331447
    35  H    0.240877
    36  C   -0.411968
    37  H    0.238798
    38  H    0.231640
    39  H    0.226436
    40  C    0.478680
    41  C   -0.156007
    42  C   -0.006491
    43  C   -0.308351
    44  H    0.224635
    45  C   -0.457740
    46  H    0.223070
    47  C   -0.508608
    48  H    0.240677
    49  H    0.239831
    50  H    0.219697
 Sum of Mulliken charges =  -0.00000

 Dipole moment (field-independent basis, Debye):
    X=             -0.8248    Y=              0.0479    Z=              2.4389  Tot=              2.5750
 Quadrupole moment (field-independent basis, Debye-Ang):
   XX=           -166.0918   YY=           -148.0789   ZZ=           -141.3653
   XY=             -5.8060   XZ=              3.4558   YZ=              7.4137

 ESP charges:
               1
     1  C    0.154484
     2  C    0.015169
     3  C    0.091555
     4  C   -0.165779
     5  C   -0.243909
     6  C    0.297556
     7  C   -0.064012
     8  H    0.138549
     9  C   -0.285468
    10  H    0.106078
    11  H    0.134071
    12  C   -0.205451
    13  H    0.132708
    14  C   -0.056841
    15  H    0.095307
    16  C   -0.154007
    17  C   -0.204411
    18  H    0.073028
    19  B    0.491622
    20  N   -0.156738
    21  C   -0.270318
    22  H    0.099208
    23  H    0.105050
    24  H    0.108404
    25  C    0.156011
    26  H    0.001909
    27  H   -0.004417
    28  H   -0.102145
    29  C   -0.197979
    30  C    0.013696
    31  C    0.019787
    32  C   -0.142185
    33  H   -0.005046
    34  C   -0.125722
    35  H   -0.002343
    36  C   -0.073281
    37  H    0.107089
    38  H    0.103506
    39  H    0.092772
    40  C   -0.159292
    41  C    0.051188
    42  C   -0.007353
    43  C   -0.196163
    44  H    0.056484
    45  C   -0.172533
    46  H    0.053619
    47  C   -0.009364
    48  H    0.109048
    49  H    0.110704
    50  H    0.086155
 Sum of ESP charges =  -0.00000

 Normal termination of Gaussian 16 at Thu Apr 11 15:02:13 2024.
