 Gaussian 16, Revision C.02,
 Gaussian 16:  AS64L-G16RevC.02  7-Dec-2021

 ----------------------------------------------------------------------
 # wb97xd/genecp scrf=(solvent=toluene,pcm) nosymm pop=(chelpg) scfcyc=
 300
 ----------------------------------------------------------------------

 -------------------------
 ph_dimethylaniline_chelpg
 -------------------------
 Symbolic Z-matrix:
 Charge =  0 Multiplicity = 1

                          Input orientation:
 ---------------------------------------------------------------------
 Center     Atomic      Atomic             Coordinates (Angstroms)
 Number     Number       Type             X           Y           Z
 ---------------------------------------------------------------------
      1          6           0       -0.675785    0.836720    0.452904
      2          6           0        0.700493    0.948398    0.605175
      3          6           0        1.397672    2.127770    0.308418
      4          6           0        0.646188    3.270428   -0.073310
      5          6           0       -0.744178    3.151200   -0.231030
      6          6           0       -1.387947    1.946609    0.017054
      7          1           0       -1.180458   -0.098767    0.663834
      8          1           0        1.267364    0.078231    0.922598
      9          1           0       -1.336184    4.009111   -0.523215
     10          1           0       -2.464115    1.888039   -0.109398
     11          7           0        1.282345    4.484124   -0.299062
     12          5           0        2.955075    2.017856    0.210838
     13          6           0        2.333158    4.957259    0.582458
     14          1           0        2.620920    4.182828    1.293934
     15          1           0        3.223781    5.250012    0.017555
     16          1           0        1.983848    5.822728    1.163138
     17          6           0        0.580596    5.546617   -0.981759
     18          1           0        0.060172    5.160402   -1.860099
     19          1           0       -0.147256    6.066293   -0.338283
     20          1           0        1.311592    6.281939   -1.325093
     21          6           0        3.748937    1.263308    1.333513
     22          6           0        4.921178    0.541205    1.059358
     23          6           0        3.298577    1.283367    2.663343
     24          6           0        5.607617   -0.133645    2.061385
     25          6           0        3.994329    0.634767    3.675664
     26          6           0        5.149210   -0.080038    3.373745
     27          1           0        6.502266   -0.697937    1.821619
     28          1           0        3.633272    0.677164    4.697482
     29          6           0        3.702464    2.579259   -1.050985
     30          6           0        3.063548    2.623425   -2.299298
     31          6           0        5.014890    3.067770   -0.978693
     32          6           0        3.707966    3.115065   -3.426059
     33          6           0        5.658279    3.587934   -2.096387
     34          6           0        5.007169    3.605268   -3.324666
     35          1           0        3.196808    3.126805   -4.382699
     36          1           0        6.668519    3.973559   -2.011137
     37          1           0        5.536522    3.057080   -0.026734
     38          1           0        5.509405    4.000572   -4.201195
     39          1           0        2.042040    2.265566   -2.382614
     40          1           0        2.386490    1.820624    2.904454
     41          1           0        5.689069   -0.597552    4.159484
     42          1           0        5.292480    0.495917    0.040806
 ---------------------------------------------------------------------

 SCF Done:  E(RwB97XD) =  -853.710308156     A.U. after   16 cycles

 Alpha  occ. eigenvalues --  -14.44480 -10.32907 -10.30819 -10.30763 -10.29429
 Alpha  occ. eigenvalues --  -10.29120 -10.29071 -10.29065 -10.28922 -10.28917
 Alpha  occ. eigenvalues --  -10.28843 -10.28823 -10.28683 -10.28674 -10.28654
 Alpha  occ. eigenvalues --  -10.28599 -10.27892 -10.27477 -10.27335 -10.27066
 Alpha  occ. eigenvalues --  -10.26510  -6.84278  -1.05085  -0.96113  -0.95635
 Alpha  occ. eigenvalues --   -0.94679  -0.86069  -0.85034  -0.84791  -0.84529
 Alpha  occ. eigenvalues --   -0.84015  -0.83924  -0.81491  -0.75469  -0.71145
 Alpha  occ. eigenvalues --   -0.70323  -0.69750  -0.68949  -0.68730  -0.66833
 Alpha  occ. eigenvalues --   -0.63070  -0.61096  -0.60750  -0.56931  -0.56567
 Alpha  occ. eigenvalues --   -0.55704  -0.55391  -0.54127  -0.53902  -0.53518
 Alpha  occ. eigenvalues --   -0.52973  -0.51838  -0.51016  -0.50755  -0.50481
 Alpha  occ. eigenvalues --   -0.48912  -0.48137  -0.47868  -0.47545  -0.46526
 Alpha  occ. eigenvalues --   -0.45838  -0.45529  -0.45133  -0.43859  -0.42977
 Alpha  occ. eigenvalues --   -0.42493  -0.42155  -0.38948  -0.38673  -0.36541
 Alpha  occ. eigenvalues --   -0.34395  -0.33552  -0.33102  -0.32617  -0.32300
 Alpha  occ. eigenvalues --   -0.26794
 Alpha virt. eigenvalues --   -0.00510   0.03644   0.04445   0.04506   0.04584
 Alpha virt. eigenvalues --    0.05127   0.05191   0.05335   0.05736   0.05766
 Alpha virt. eigenvalues --    0.06153   0.06375   0.06728   0.06980   0.07133

 Mulliken charges:
               1
     1  C   -0.665283
     2  C   -0.081639
     3  C    0.185757
     4  C   -0.044810
     5  C   -0.159806
     6  C   -0.434096
     7  H    0.222274
     8  H    0.223601
     9  H    0.191430
    10  H    0.227525
    11  N    0.336900
    12  B   -0.291400
    13  C   -0.555049
    14  H    0.186251
    15  H    0.203258
    16  H    0.189328
    17  C   -0.439904
    18  H    0.170748
    19  H    0.186849
    20  H    0.182786
    21  C    0.504191
    22  C   -0.081611
    23  C   -0.109566
    24  C   -0.470113
    25  C   -0.378562
    26  C   -0.489193
    27  H    0.246829
    28  H    0.243399
    29  C    0.619822
    30  C   -0.198717
    31  C   -0.263519
    32  C   -0.416957
    33  C   -0.386846
    34  C   -0.482840
    35  H    0.241643
    36  H    0.241282
    37  H    0.221556
    38  H    0.214212
    39  H    0.237647
    40  H    0.238069
    41  H    0.216708
    42  H    0.217846
 Sum of Mulliken charges =  -0.00000

 Dipole moment (field-independent basis, Debye):
    X=              0.2590    Y=              1.8274    Z=              0.0471  Tot=              1.8463
 Quadrupole moment (field-independent basis, Debye-Ang):
   XX=           -120.4807   YY=           -114.7259   ZZ=           -123.3195
   XY=              1.5770   XZ=              2.6266   YZ=             -5.3945

 ESP charges:
               1
     1  C   -0.227409
     2  C   -0.008176
     3  C   -0.130056
     4  C    0.281789
     5  C   -0.273004
     6  C   -0.045480
     7  H    0.121887
     8  H    0.020735
     9  H    0.124935
    10  H    0.097527
    11  N   -0.181967
    12  B    0.287763
    13  C    0.041270
    14  H   -0.022910
    15  H    0.006516
    16  H    0.046721
    17  C   -0.212855
    18  H    0.099718
    19  H    0.076638
    20  H    0.097047
    21  C   -0.115560
    22  C    0.036503
    23  C    0.060704
    24  C   -0.146725
    25  C   -0.176962
    26  C   -0.083360
    27  H    0.113794
    28  H    0.115549
    29  C   -0.089848
    30  C   -0.079310
    31  C    0.122555
    32  C   -0.121094
    33  C   -0.197398
    34  C   -0.071266
    35  H    0.104645
    36  H    0.113309
    37  H   -0.013616
    38  H    0.093089
    39  H    0.038574
    40  H    0.008273
    41  H    0.101863
    42  H   -0.014407
 Sum of ESP charges =  -0.00000

 Normal termination of Gaussian 16 at Tue Apr  9 17:00:30 2024.
