 Gaussian 16, Revision C.02,
 Gaussian 16:  AS64L-G16RevC.02  7-Dec-2021

 ----------------------------------------------------------------------
 # wb97xd/genecp scrf=(solvent=toluene,pcm) nosymm pop=(chelpg) scfcyc=
 300
 ----------------------------------------------------------------------

 ----------------------
 ph_dibenzofuran_chelpg
 ----------------------
 Symbolic Z-matrix:
 Charge =  0 Multiplicity = 1

                          Input orientation:
 ---------------------------------------------------------------------
 Center     Atomic      Atomic             Coordinates (Angstroms)
 Number     Number       Type             X           Y           Z
 ---------------------------------------------------------------------
      1          6           0        2.359428    2.254210    0.224212
      2          6           0        2.314478    2.750221   -1.081044
      3          8           0        1.536219    2.965615    1.046006
      4          6           0        1.403076    3.879324   -1.040705
      5          6           0        0.977476    3.955215    0.283762
      6          6           0        0.911477    4.777252   -1.989917
      7          6           0        0.066563    4.909370    0.762032
      8          6           0        0.004915    5.725522   -1.553037
      9          1           0        1.223420    4.728255   -3.026106
     10          6           0       -0.401906    5.796734   -0.213972
     11          1           0       -0.402283    6.444472   -2.255097
     12          1           0       -1.102320    6.572294    0.066292
     13          6           0        3.076657    2.128382   -2.067115
     14          1           0        3.068686    2.492515   -3.088347
     15          6           0        3.844420    1.027792   -1.710464
     16          1           0        4.444611    0.526067   -2.460755
     17          6           0        3.854980    0.553700   -0.394924
     18          6           0        3.122706    1.161751    0.634834
     19          1           0        4.470251   -0.307480   -0.155462
     20          5           0        3.223116    0.699200    2.128836
     21          7           0       -0.364031    4.914405    2.091371
     22          6           0        0.665028    4.867851    3.126502
     23          1           0        1.195974    5.828722    3.213305
     24          1           0        0.191780    4.647864    4.085508
     25          1           0        1.390910    4.084804    2.925206
     26          6           0       -1.444749    5.820794    2.422793
     27          1           0       -1.785997    5.596477    3.434852
     28          1           0       -1.143574    6.880854    2.391866
     29          1           0       -2.286373    5.675723    1.742915
     30          6           0        3.316894    1.783826    3.255121
     31          6           0        4.012557    2.983334    3.037995
     32          6           0        2.700710    1.607601    4.502342
     33          6           0        4.108186    3.953585    4.026228
     34          1           0        4.486707    3.157167    2.076790
     35          6           0        2.760178    2.591122    5.483185
     36          1           0        2.150692    0.693259    4.701125
     37          6           0        3.472974    3.761936    5.249680
     38          1           0        4.662860    4.866522    3.839061
     39          1           0        2.257629    2.441245    6.432548
     40          1           0        3.531025    4.525633    6.017783
     41          6           0        3.268400   -0.824517    2.470587
     42          6           0        2.650258   -1.773802    1.639936
     43          6           0        3.929165   -1.297880    3.616238
     44          6           0        2.675056   -3.128487    1.945468
     45          1           0        2.132155   -1.440856    0.746461
     46          6           0        3.980424   -2.653578    3.913771
     47          1           0        4.421361   -0.591309    4.276454
     48          6           0        3.346340   -3.570349    3.081159
     49          1           0        2.177442   -3.841134    1.296987
     50          1           0        4.509037   -2.996717    4.796323
     51          1           0        3.376058   -4.628743    3.316802
 ---------------------------------------------------------------------

 SCF Done:  E(RwB97XD) =  -1158.76280446     A.U. after   16 cycles

 Alpha  occ. eigenvalues --  -19.31107 -14.44689 -10.35161 -10.34542 -10.33377
 Alpha  occ. eigenvalues --  -10.30594 -10.30155 -10.30042 -10.29942 -10.29744
 Alpha  occ. eigenvalues --  -10.29731 -10.29671 -10.29390 -10.29344 -10.29336
 Alpha  occ. eigenvalues --  -10.29145 -10.29108 -10.29096 -10.29081 -10.29025
 Alpha  occ. eigenvalues --  -10.28977 -10.28933 -10.28809 -10.28709 -10.28624
 Alpha  occ. eigenvalues --  -10.28122 -10.27637 -10.27483  -6.85030  -1.22158
 Alpha  occ. eigenvalues --   -1.04998  -0.97140  -0.96379  -0.95974  -0.95699
 Alpha  occ. eigenvalues --   -0.89021  -0.86885  -0.85666  -0.85157  -0.84918
 Alpha  occ. eigenvalues --   -0.84284  -0.84020  -0.83203  -0.80957  -0.76217
 Alpha  occ. eigenvalues --   -0.73570  -0.71949  -0.71176  -0.70480  -0.69859
 Alpha  occ. eigenvalues --   -0.69149  -0.69001  -0.66329  -0.62892  -0.62605
 Alpha  occ. eigenvalues --   -0.61099  -0.60929  -0.59641  -0.57455  -0.56625
 Alpha  occ. eigenvalues --   -0.56455  -0.55161  -0.54696  -0.54619  -0.54284
 Alpha  occ. eigenvalues --   -0.54107  -0.53704  -0.53191  -0.52447  -0.51062
 Alpha  occ. eigenvalues --   -0.50823  -0.50766  -0.50021  -0.48674  -0.48566
 Alpha  occ. eigenvalues --   -0.48194  -0.47334  -0.46969  -0.46304  -0.45627
 Alpha  occ. eigenvalues --   -0.45448  -0.44991  -0.44699  -0.44393  -0.44123
 Alpha  occ. eigenvalues --   -0.42958  -0.42546  -0.42432  -0.39587  -0.39354
 Alpha  occ. eigenvalues --   -0.38172  -0.35698  -0.34453  -0.33788  -0.33268
 Alpha  occ. eigenvalues --   -0.32797  -0.31929  -0.29940  -0.27374
 Alpha virt. eigenvalues --   -0.01388   0.02374   0.03788   0.04271   0.04433
 Alpha virt. eigenvalues --    0.04539   0.04918   0.05025   0.05460   0.05582
 Alpha virt. eigenvalues --    0.05802   0.05919   0.06003   0.06449   0.06612

 Mulliken charges:
               1
     1  C   -0.087864
     2  C    0.457836
     3  O    0.147458
     4  C    0.714102
     5  C   -0.226354
     6  C   -0.721548
     7  C   -0.323490
     8  C   -0.453538
     9  H    0.174581
    10  C    0.065034
    11  H    0.235344
    12  H    0.189897
    13  C   -0.326423
    14  H    0.206530
    15  C   -0.776198
    16  H    0.244655
    17  C   -0.285291
    18  C    0.226641
    19  H    0.224470
    20  B    0.380403
    21  N    0.211375
    22  C   -0.819017
    23  H    0.182533
    24  H    0.144901
    25  H    0.372446
    26  C   -0.336362
    27  H    0.184201
    28  H    0.164595
    29  H    0.159377
    30  C    0.275953
    31  C   -0.386438
    32  C   -0.052943
    33  C   -0.493821
    34  H    0.225805
    35  C   -0.500369
    36  H    0.212298
    37  C   -0.345079
    38  H    0.239423
    39  H    0.244469
    40  H    0.217552
    41  C    0.277606
    42  C    0.101639
    43  C   -0.129800
    44  C   -0.402887
    45  H    0.210627
    46  C   -0.450210
    47  H    0.209274
    48  C   -0.490932
    49  H    0.245179
    50  H    0.249863
    51  H    0.212498
 Sum of Mulliken charges =  -0.00000

 Dipole moment (field-independent basis, Debye):
    X=             -0.0537    Y=              0.4422    Z=              0.8928  Tot=              0.9978
 Quadrupole moment (field-independent basis, Debye-Ang):
   XX=           -167.9629   YY=           -148.2494   ZZ=           -149.6485
   XY=             -6.2339   XZ=             -1.1996   YZ=              4.8717

 ESP charges:
               1
     1  C    0.361910
     2  C   -0.059309
     3  O   -0.358022
     4  C    0.103441
     5  C    0.043438
     6  C   -0.260080
     7  C    0.331438
     8  C   -0.122930
     9  H    0.148844
    10  C   -0.263549
    11  H    0.116231
    12  H    0.150588
    13  C   -0.151735
    14  H    0.138185
    15  C   -0.185139
    16  H    0.123493
    17  C    0.010661
    18  C   -0.205740
    19  H    0.030853
    20  B    0.363585
    21  N   -0.391928
    22  C    0.031988
    23  H    0.023175
    24  H    0.033000
    25  H    0.082256
    26  C   -0.068532
    27  H    0.097643
    28  H    0.048123
    29  H    0.052799
    30  C   -0.113358
    31  C    0.008818
    32  C    0.035344
    33  C   -0.142972
    34  H    0.007206
    35  C   -0.143979
    36  H    0.014948
    37  C   -0.080808
    38  H    0.108078
    39  H    0.110182
    40  H    0.095063
    41  C   -0.174978
    42  C    0.051990
    43  C    0.051412
    44  C   -0.159103
    45  H    0.009953
    46  C   -0.153690
    47  H   -0.004582
    48  C   -0.062442
    49  H    0.111500
    50  H    0.112383
    51  H    0.094350
 Sum of ESP charges =  -0.00000

 Normal termination of Gaussian 16 at Thu Apr 11 14:46:36 2024.
