 Gaussian 16, Revision C.02,
 Gaussian 16:  AS64L-G16RevC.02  7-Dec-2021

 ----------------------------------------------------------------------
 # wb97xd/genecp scrf=(solvent=toluene,pcm) nosymm pop=(chelpg) scfcyc=
 300
 ----------------------------------------------------------------------

 --------------------
 ph_metriazole_chelpg
 --------------------
 Symbolic Z-matrix:
 Charge =  0 Multiplicity = 1

                          Input orientation:
 ---------------------------------------------------------------------
 Center     Atomic      Atomic             Coordinates (Angstroms)
 Number     Number       Type             X           Y           Z
 ---------------------------------------------------------------------
      1          6           0        2.781677    1.648486    1.168895
      2          1           0        3.017560    2.215326    2.054704
      3          6           0        3.115823    0.361680    0.781062
      4          7           0        2.020111    2.138382    0.181968
      5          7           0        1.877574    1.223012   -0.796902
      6          7           0        2.519174    0.165008   -0.444221
      7          5           0        3.959661   -0.685775    1.555638
      8          6           0        1.404521    3.446220    0.060223
      9          1           0        0.766924    3.426817   -0.821038
     10          1           0        0.802148    3.656071    0.943874
     11          1           0        2.169709    4.213916   -0.059021
     12          6           0        3.905370   -2.207170    1.210845
     13          6           0        2.795015   -2.787710    0.574937
     14          6           0        4.982510   -3.051365    1.530842
     15          6           0        2.755491   -4.146088    0.288972
     16          6           0        4.958693   -4.406089    1.225984
     17          6           0        3.839684   -4.956747    0.609902
     18          6           0        4.861922   -0.167757    2.732551
     19          6           0        4.931022   -0.863874    3.949423
     20          6           0        5.620662    1.007329    2.616665
     21          6           0        5.702371   -0.398787    5.007493
     22          6           0        6.419502    1.460971    3.659737
     23          6           0        6.454253    0.762437    4.861892
     24          1           0        7.012243    2.361012    3.537287
     25          1           0        5.602413    1.565387    1.685648
     26          1           0        7.068111    1.119730    5.681538
     27          1           0        5.725406   -0.946759    5.943143
     28          1           0        4.362324   -1.780272    4.071402
     29          1           0        5.859123   -2.635126    2.016342
     30          1           0        5.808616   -5.033518    1.471134
     31          1           0        3.813560   -6.016118    0.377755
     32          1           0        1.954362   -2.162848    0.298900
     33          1           0        1.883051   -4.572711   -0.193650
 ---------------------------------------------------------------------

 SCF Done:  E(RwB97XD) =  -769.050643129     A.U. after   16 cycles

 Alpha  occ. eigenvalues --  -14.53513 -14.49717 -14.45983 -10.33900 -10.33810
 Alpha  occ. eigenvalues --  -10.29592 -10.29568 -10.29441 -10.29322 -10.29269
 Alpha  occ. eigenvalues --  -10.29235 -10.29198 -10.28922 -10.28669 -10.28647
 Alpha  occ. eigenvalues --  -10.28527 -10.27845 -10.27239  -6.84898  -1.21668
 Alpha  occ. eigenvalues --   -1.03092  -0.96387  -0.95677  -0.91348  -0.85740
 Alpha  occ. eigenvalues --   -0.85199  -0.84775  -0.84302  -0.83956  -0.73857
 Alpha  occ. eigenvalues --   -0.70927  -0.70599  -0.69624  -0.69046  -0.68700
 Alpha  occ. eigenvalues --   -0.64071  -0.61760  -0.60810  -0.59572  -0.57023
 Alpha  occ. eigenvalues --   -0.54619  -0.54398  -0.53993  -0.53636  -0.52903
 Alpha  occ. eigenvalues --   -0.51599  -0.51392  -0.51036  -0.50440  -0.48508
 Alpha  occ. eigenvalues --   -0.47781  -0.46258  -0.45797  -0.43687  -0.42833
 Alpha  occ. eigenvalues --   -0.42376  -0.40121  -0.39399  -0.38239  -0.36193
 Alpha  occ. eigenvalues --   -0.35951  -0.33893  -0.33352  -0.32950  -0.32654
 Alpha virt. eigenvalues --   -0.00933   0.03585   0.04237   0.04463   0.04648
 Alpha virt. eigenvalues --    0.04820   0.05292   0.05770   0.06009   0.06181
 Alpha virt. eigenvalues --    0.06453   0.06717   0.07327   0.07592   0.08043

 Mulliken charges:
               1
     1  C   -0.489241
     2  H    0.265679
     3  C   -0.777899
     4  N    0.278410
     5  N    0.108375
     6  N   -0.142234
     7  B    0.518163
     8  C   -0.366650
     9  H    0.210205
    10  H    0.197700
    11  H    0.205073
    12  C    0.102151
    13  C    0.115610
    14  C   -0.182385
    15  C   -0.317770
    16  C   -0.377454
    17  C   -0.423973
    18  C    0.359515
    19  C    0.040633
    20  C   -0.130145
    21  C   -0.525555
    22  C   -0.431548
    23  C   -0.489769
    24  H    0.240956
    25  H    0.209882
    26  H    0.210557
    27  H    0.241718
    28  H    0.217485
    29  H    0.211176
    30  H    0.234552
    31  H    0.210398
    32  H    0.241400
    33  H    0.234985
 Sum of Mulliken charges =  -0.00000

 Dipole moment (field-independent basis, Debye):
    X=             -0.0881    Y=              4.0436    Z=              3.2020  Tot=              5.1586
 Quadrupole moment (field-independent basis, Debye-Ang):
   XX=           -105.8990   YY=            -85.7848   ZZ=           -107.8528
   XY=              8.8562   XZ=             13.4785   YZ=              3.5609

 ESP charges:
               1
     1  C   -0.320058
     2  H    0.119513
     3  C    0.276312
     4  N    0.546618
     5  N   -0.355992
     6  N   -0.342416
     7  B    0.058305
     8  C   -0.248518
     9  H    0.088406
    10  H    0.109380
    11  H    0.115559
    12  C    0.068762
    13  C   -0.248455
    14  C   -0.058609
    15  C   -0.019086
    16  C   -0.102235
    17  C   -0.120717
    18  C    0.015472
    19  C   -0.069315
    20  C   -0.050906
    21  C   -0.113670
    22  C   -0.138161
    23  C   -0.095169
    24  H    0.108334
    25  H    0.058266
    26  H    0.101577
    27  H    0.105467
    28  H    0.050385
    29  H    0.038584
    30  H    0.099528
    31  H    0.100847
    32  H    0.142449
    33  H    0.079540
 Sum of ESP charges =   0.00000

 Normal termination of Gaussian 16 at Tue Apr  9 16:53:20 2024.
