 Gaussian 16, Revision C.02,
 Gaussian 16:  AS64L-G16RevC.02  7-Dec-2021

 ----------------------------------------------------------------------
 # wb97xd/genecp scrf=(solvent=toluene,pcm) nosymm pop=(chelpg) scfcyc=
 300
 ----------------------------------------------------------------------

 ------------------------
 ph_naphtoxanthene_chelpg
 ------------------------
 Symbolic Z-matrix:
 Charge =  0 Multiplicity = 1

                          Input orientation:
 ---------------------------------------------------------------------
 Center     Atomic      Atomic             Coordinates (Angstroms)
 Number     Number       Type             X           Y           Z
 ---------------------------------------------------------------------
      1          6           0       -2.646641    2.233743    1.799525
      2          6           0       -1.602503    2.623658    2.681356
      3          6           0       -0.756082    3.672691    2.421119
      4          6           0       -0.910707    4.429478    1.238436
      5          6           0       -1.955609    4.091251    0.355571
      6          6           0       -2.805150    3.008777    0.659268
      7          1           0       -1.463663    2.049308    3.591379
      8          1           0        0.037914    3.925058    3.115390
      9          6           0       -2.136033    4.810703   -0.858899
     10          8           0       -3.849677    2.714932   -0.163022
     11          6           0       -3.183820    4.405712   -1.736481
     12          6           0       -4.018398    3.343848   -1.363129
     13          6           0       -3.351057    5.045387   -2.982574
     14          6           0       -5.039721    2.886696   -2.191682
     15          6           0       -4.369370    4.576867   -3.829587
     16          6           0       -5.183006    3.535519   -3.438053
     17          1           0       -4.520237    5.045600   -4.795971
     18          1           0       -5.966131    3.204856   -4.109052
     19          5           0       -3.514138    0.962278    2.095736
     20          7           0       -5.842896    1.806049   -1.791843
     21          6           0       -6.667548    2.023667   -0.611199
     22          1           0       -7.506569    2.707515   -0.819845
     23          1           0       -7.071489    1.064372   -0.282144
     24          1           0       -6.071036    2.430803    0.202705
     25          6           0       -6.547294    1.089924   -2.833504
     26          1           0       -6.905255    0.145396   -2.417353
     27          1           0       -7.417829    1.637273   -3.233794
     28          1           0       -5.868981    0.858782   -3.657078
     29          6           0       -2.468675    6.127159   -3.307293
     30          1           0       -2.599600    6.631298   -4.259154
     31          6           0       -1.486603    6.521427   -2.453858
     32          1           0       -0.829829    7.343082   -2.720219
     33          6           0       -1.285790    5.859465   -1.199454
     34          6           0       -0.244575    6.206401   -0.285771
     35          6           0       -0.064035    5.524371    0.879766
     36          1           0        0.417022    7.028484   -0.539759
     37          1           0        0.738709    5.801133    1.554898
     38          6           0       -3.938872    0.663489    3.574163
     39          6           0       -4.074299   -0.650512    4.050022
     40          6           0       -4.199548    1.707981    4.475889
     41          6           0       -4.440800   -0.910754    5.364667
     42          1           0       -3.876534   -1.481305    3.380536
     43          6           0       -4.595601    1.455686    5.783258
     44          1           0       -4.097645    2.735774    4.141715
     45          6           0       -4.710288    0.143557    6.231380
     46          1           0       -4.522848   -1.934515    5.713148
     47          1           0       -4.806582    2.279841    6.455927
     48          1           0       -5.007391   -0.056975    7.255178
     49          6           0       -3.912697   -0.018519    0.941721
     50          6           0       -3.085614   -0.197611   -0.177752
     51          6           0       -5.122161   -0.726348    0.970293
     52          6           0       -3.443042   -1.044570   -1.215793
     53          1           0       -2.145911    0.343373   -0.235337
     54          6           0       -5.502990   -1.553546   -0.080091
     55          1           0       -5.788693   -0.609070    1.819033
     56          6           0       -4.660585   -1.717548   -1.173001
     57          1           0       -2.782746   -1.169783   -2.067033
     58          1           0       -6.454125   -2.074332   -0.043552
     59          1           0       -4.951306   -2.367784   -1.991400
 ---------------------------------------------------------------------

 SCF Done:  E(RwB97XD) =  -1388.60696129     A.U. after   17 cycles

 Alpha  occ. eigenvalues --  -19.30782 -14.43804 -10.36736 -10.35724 -10.32766
 Alpha  occ. eigenvalues --  -10.31027 -10.31012 -10.30814 -10.30782 -10.30361
 Alpha  occ. eigenvalues --  -10.30323 -10.30249 -10.29989 -10.29671 -10.29600
 Alpha  occ. eigenvalues --  -10.29570 -10.29551 -10.29478 -10.29459 -10.29357
 Alpha  occ. eigenvalues --  -10.29139 -10.29112 -10.29015 -10.28960 -10.28958
 Alpha  occ. eigenvalues --  -10.28952 -10.28674 -10.28661 -10.28533 -10.28502
 Alpha  occ. eigenvalues --  -10.28364 -10.27488 -10.27407 -10.26901  -6.84563
 Alpha  occ. eigenvalues --   -1.21309  -1.04532  -1.00382  -0.97932  -0.96104
 Alpha  occ. eigenvalues --   -0.95467  -0.93787  -0.91571  -0.89529  -0.87333
 Alpha  occ. eigenvalues --   -0.86183  -0.85265  -0.84894  -0.84417  -0.83878
 Alpha  occ. eigenvalues --   -0.83181  -0.81205  -0.80509  -0.75967  -0.75669
 Alpha  occ. eigenvalues --   -0.73754  -0.73218  -0.70667  -0.70011  -0.69572
 Alpha  occ. eigenvalues --   -0.69430  -0.68809  -0.66352  -0.65962  -0.64362
 Alpha  occ. eigenvalues --   -0.62704  -0.61371  -0.60719  -0.60517  -0.58727
 Alpha  occ. eigenvalues --   -0.57403  -0.57226  -0.56675  -0.55813  -0.54932
 Alpha  occ. eigenvalues --   -0.54673  -0.54447  -0.53882  -0.53511  -0.53330
 Alpha  occ. eigenvalues --   -0.52811  -0.52126  -0.51890  -0.51232  -0.50851
 Alpha  occ. eigenvalues --   -0.50360  -0.50253  -0.49509  -0.48568  -0.48271
 Alpha  occ. eigenvalues --   -0.48027  -0.47701  -0.47212  -0.46887  -0.46324
 Alpha  occ. eigenvalues --   -0.45869  -0.45567  -0.45191  -0.44943  -0.44628
 Alpha  occ. eigenvalues --   -0.42666  -0.42491  -0.42157  -0.41843  -0.41401
 Alpha  occ. eigenvalues --   -0.40213  -0.39128  -0.38745  -0.37717  -0.35080
 Alpha  occ. eigenvalues --   -0.34472  -0.33890  -0.33543  -0.32727  -0.32309
 Alpha  occ. eigenvalues --   -0.31294  -0.28293  -0.25291
 Alpha virt. eigenvalues --   -0.01461   0.01143   0.01993   0.03651   0.04116
 Alpha virt. eigenvalues --    0.04310   0.04361   0.04963   0.05034   0.05135
 Alpha virt. eigenvalues --    0.05260   0.05463   0.05522   0.05896   0.06085

 Mulliken charges:
               1
     1  C    0.022731
     2  C   -0.288286
     3  C   -0.286347
     4  C    0.070698
     5  C    0.066434
     6  C   -0.113001
     7  H    0.242462
     8  H    0.226490
     9  C   -0.054159
    10  O    0.160534
    11  C    0.114018
    12  C   -0.105025
    13  C    0.339556
    14  C   -0.335114
    15  C   -0.404099
    16  C   -0.278302
    17  H    0.201942
    18  H    0.204089
    19  B   -0.015332
    20  N    0.469206
    21  C   -0.259213
    22  H    0.177135
    23  H    0.172617
    24  H    0.192215
    25  C   -0.346491
    26  H    0.165229
    27  H    0.161410
    28  H    0.166912
    29  C   -0.397301
    30  H    0.186787
    31  C   -0.391714
    32  H    0.194469
    33  C    0.145298
    34  C   -0.241152
    35  C   -0.432155
    36  H    0.199314
    37  H    0.197288
    38  C    0.435609
    39  C   -0.226309
    40  C    0.200678
    41  C   -0.483541
    42  H    0.214096
    43  C   -0.312940
    44  H    0.224909
    45  C   -0.510583
    46  H    0.249835
    47  H    0.244937
    48  H    0.216569
    49  C    0.252793
    50  C   -0.351759
    51  C    0.079243
    52  C   -0.502317
    53  H    0.218508
    54  C   -0.595200
    55  H    0.209531
    56  C   -0.384241
    57  H    0.235766
    58  H    0.239476
    59  H    0.215798
 Sum of Mulliken charges =  -0.00000

 Dipole moment (field-independent basis, Debye):
    X=             -0.9074    Y=              0.1773    Z=             -0.7588  Tot=              1.1961
 Quadrupole moment (field-independent basis, Debye-Ang):
   XX=           -185.1714   YY=           -192.0506   ZZ=           -181.8660
   XY=             10.2885   XZ=              6.4602   YZ=             -3.6196

 ESP charges:
               1
     1  C   -0.312172
     2  C    0.085027
     3  C   -0.367048
     4  C    0.253424
     5  C   -0.157007
     6  C    0.333145
     7  H    0.023855
     8  H    0.159159
     9  C    0.079360
    10  O   -0.169504
    11  C   -0.095489
    12  C    0.126175
    13  C    0.202116
    14  C    0.091837
    15  C   -0.317025
    16  C   -0.105874
    17  H    0.148035
    18  H    0.133391
    19  B    0.456238
    20  N   -0.192693
    21  C    0.107910
    22  H   -0.009357
    23  H    0.022630
    24  H   -0.048056
    25  C   -0.145991
    26  H    0.093660
    27  H    0.047942
    28  H    0.065606
    29  C   -0.222478
    30  H    0.137883
    31  C   -0.194166
    32  H    0.131682
    33  C    0.096893
    34  C   -0.165485
    35  C   -0.242191
    36  H    0.132970
    37  H    0.137959
    38  C   -0.209934
    39  C    0.079418
    40  C    0.069959
    41  C   -0.161617
    42  H   -0.022521
    43  C   -0.177848
    44  H    0.006047
    45  C   -0.048243
    46  H    0.109505
    47  H    0.112025
    48  H    0.086904
    49  C   -0.210312
    50  C   -0.040109
    51  C    0.142934
    52  C   -0.132957
    53  H    0.028550
    54  C   -0.163928
    55  H   -0.016533
    56  C   -0.065738
    57  H    0.104311
    58  H    0.099547
    59  H    0.088177
 Sum of ESP charges =   0.00000

 Normal termination of Gaussian 16 at Thu Apr 11 14:27:39 2024.
