 Gaussian 16, Revision C.02,
 Gaussian 16:  AS64L-G16RevC.02  7-Dec-2021

 ----------------------------------------------------------------------
 # wb97xd/genecp scrf=(solvent=toluene,pcm) nosymm pop=(chelpg) scfcyc=
 300
 ----------------------------------------------------------------------

 ------------------
 ph_xanthene_chelpg
 ------------------
 Symbolic Z-matrix:
 Charge =  0 Multiplicity = 1

                          Input orientation:
 ---------------------------------------------------------------------
 Center     Atomic      Atomic             Coordinates (Angstroms)
 Number     Number       Type             X           Y           Z
 ---------------------------------------------------------------------
      1          6           0       -0.734644    1.902151   -0.181783
      2          6           0        0.611574    2.251715   -0.290017
      3          6           0        0.998988    3.588276   -0.296878
      4          6           0        0.049953    4.599240   -0.188562
      5          6           0       -1.303135    4.291700   -0.063630
      6          6           0       -1.645491    2.945117   -0.070577
      7          1           0        1.364847    1.476033   -0.386269
      8          1           0        2.047863    3.846033   -0.391873
      9          1           0        0.374508    5.632721   -0.199083
     10          6           0       -2.430284    5.300749    0.133926
     11          8           0       -2.968244    2.569967    0.021796
     12          6           0       -2.029145    6.703816   -0.323434
     13          1           0       -2.839632    7.413468   -0.144750
     14          1           0       -1.169473    7.060269    0.248030
     15          1           0       -1.774150    6.725350   -1.386015
     16          6           0       -2.781526    5.349166    1.639705
     17          1           0       -1.918448    5.695599    2.215287
     18          1           0       -3.615336    6.036576    1.807950
     19          1           0       -3.068621    4.363321    2.011959
     20          6           0       -3.645371    4.768799   -0.627527
     21          6           0       -3.870954    3.397651   -0.600399
     22          6           0       -4.544805    5.569831   -1.331977
     23          6           0       -4.968286    2.784605   -1.231857
     24          6           0       -5.635148    4.997331   -1.968354
     25          1           0       -4.395238    6.640233   -1.389440
     26          6           0       -5.852098    3.625085   -1.913849
     27          1           0       -6.332199    5.625200   -2.511996
     28          1           0       -6.713032    3.202777   -2.416523
     29          5           0       -1.304158    0.427728   -0.191362
     30          7           0       -5.085368    1.388419   -1.230668
     31          6           0       -5.195239    0.718104    0.055856
     32          1           0       -6.210288    0.806462    0.475993
     33          1           0       -4.969964   -0.342947   -0.077914
     34          1           0       -4.480912    1.123488    0.768188
     35          6           0       -5.929997    0.793579   -2.242342
     36          1           0       -5.710222   -0.275782   -2.289421
     37          1           0       -7.008078    0.911150   -2.040195
     38          1           0       -5.707524    1.224742   -3.220281
     39          6           0       -1.714942   -0.215103   -1.555532
     40          6           0       -2.191410    0.590719   -2.601798
     41          6           0       -1.625339   -1.596151   -1.790501
     42          6           0       -2.595347    0.042042   -3.810577
     43          1           0       -2.264905    1.663135   -2.459121
     44          6           0       -2.000206   -2.149565   -3.009207
     45          1           0       -1.238679   -2.247369   -1.013387
     46          6           0       -2.498179   -1.330781   -4.017069
     47          1           0       -2.978297    0.684328   -4.596093
     48          1           0       -1.907710   -3.217845   -3.172131
     49          1           0       -2.802023   -1.760760   -4.965624
     50          6           0       -1.451971   -0.320475    1.174058
     51          6           0       -0.705642    0.085464    2.292396
     52          6           0       -2.362931   -1.374313    1.353852
     53          6           0       -0.835043   -0.549430    3.520795
     54          1           0       -0.011859    0.914311    2.194467
     55          6           0       -2.516378   -1.997940    2.585031
     56          1           0       -2.977121   -1.696302    0.520408
     57          6           0       -1.744430   -1.591671    3.668906
     58          1           0       -0.238202   -0.225146    4.366182
     59          1           0       -3.236497   -2.800422    2.701801
     60          1           0       -1.857732   -2.081383    4.630161
 ---------------------------------------------------------------------

 SCF Done:  E(RwB97XD) =  -1276.69348404     A.U. after   17 cycles

 Alpha  occ. eigenvalues --  -19.29120 -14.43767 -10.34485 -10.34377 -10.32545
 Alpha  occ. eigenvalues --  -10.31653 -10.30177 -10.29684 -10.29678 -10.29655
 Alpha  occ. eigenvalues --  -10.29651 -10.29321 -10.29271 -10.29232 -10.29080
 Alpha  occ. eigenvalues --  -10.29060 -10.29028 -10.28877 -10.28862 -10.28800
 Alpha  occ. eigenvalues --  -10.28747 -10.28591 -10.28450 -10.28441 -10.28290
 Alpha  occ. eigenvalues --  -10.28221 -10.27567 -10.27552 -10.27355 -10.27349
 Alpha  occ. eigenvalues --  -10.27245  -6.85237  -1.19628  -1.04394  -0.97033
 Alpha  occ. eigenvalues --   -0.96385  -0.96051  -0.95725  -0.91841  -0.86839
 Alpha  occ. eigenvalues --   -0.85729  -0.85182  -0.84763  -0.84591  -0.84119
 Alpha  occ. eigenvalues --   -0.83487  -0.82344  -0.80821  -0.79027  -0.75478
 Alpha  occ. eigenvalues --   -0.73457  -0.72849  -0.71140  -0.70455  -0.69684
 Alpha  occ. eigenvalues --   -0.69009  -0.68198  -0.66901  -0.64763  -0.64105
 Alpha  occ. eigenvalues --   -0.62513  -0.60908  -0.59896  -0.58074  -0.57048
 Alpha  occ. eigenvalues --   -0.56721  -0.56168  -0.55484  -0.55065  -0.54392
 Alpha  occ. eigenvalues --   -0.54247  -0.53999  -0.53549  -0.53258  -0.52983
 Alpha  occ. eigenvalues --   -0.52608  -0.51279  -0.51014  -0.50491  -0.49447
 Alpha  occ. eigenvalues --   -0.49034  -0.48549  -0.48227  -0.47784  -0.47301
 Alpha  occ. eigenvalues --   -0.46941  -0.46727  -0.46367  -0.46009  -0.45487
 Alpha  occ. eigenvalues --   -0.45201  -0.44927  -0.44475  -0.44094  -0.43746
 Alpha  occ. eigenvalues --   -0.42926  -0.42541  -0.42244  -0.41115  -0.40453
 Alpha  occ. eigenvalues --   -0.39497  -0.38277  -0.35599  -0.34587  -0.33622
 Alpha  occ. eigenvalues --   -0.33109  -0.32727  -0.32542  -0.32049  -0.30129
 Alpha  occ. eigenvalues --   -0.27066
 Alpha virt. eigenvalues --   -0.00579   0.03670   0.04308   0.04334   0.04579
 Alpha virt. eigenvalues --    0.04770   0.04918   0.05261   0.05428   0.05604
 Alpha virt. eigenvalues --    0.05721   0.05872   0.06035   0.06142   0.06363

 Mulliken charges:
               1
     1  C    0.687440
     2  C   -0.360128
     3  C   -0.688323
     4  C   -0.236696
     5  C    0.386058
     6  C   -0.280527
     7  H    0.232194
     8  H    0.238356
     9  H    0.172502
    10  C   -0.227941
    11  O   -0.026008
    12  C   -0.431194
    13  H    0.165201
    14  H    0.170242
    15  H    0.203285
    16  C   -0.767144
    17  H    0.184847
    18  H    0.188908
    19  H    0.184638
    20  C    0.142535
    21  C    0.038567
    22  C    0.135676
    23  C    0.091202
    24  C   -0.676208
    25  H    0.174678
    26  C   -0.575638
    27  H    0.242120
    28  H    0.178131
    29  B   -0.507866
    30  N    0.580597
    31  C   -0.333780
    32  H    0.182196
    33  H    0.153799
    34  H    0.165667
    35  C   -0.375648
    36  H    0.146139
    37  H    0.169350
    38  H    0.161873
    39  C    0.232378
    40  C   -0.272696
    41  C   -0.085434
    42  C   -0.142183
    43  H    0.189390
    44  C   -0.293730
    45  H    0.237958
    46  C   -0.576551
    47  H    0.238600
    48  H    0.234227
    49  H    0.222484
    50  C    0.076206
    51  C    0.064091
    52  C   -0.069437
    53  C   -0.437302
    54  H    0.238603
    55  C   -0.233497
    56  H    0.207426
    57  C   -0.421720
    58  H    0.234957
    59  H    0.240211
    60  H    0.226921
 Sum of Mulliken charges =  -0.00000

 Dipole moment (field-independent basis, Debye):
    X=             -0.8582    Y=             -0.3332    Z=              0.2128  Tot=              0.9449
 Quadrupole moment (field-independent basis, Debye-Ang):
   XX=           -178.2512   YY=           -172.0113   ZZ=           -180.2143
   XY=              5.6714   XZ=              7.7783   YZ=             -0.2062

 ESP charges:
               1
     1  C   -0.116729
     2  C   -0.084802
     3  C   -0.125538
     4  C   -0.187448
     5  C   -0.091933
     6  C    0.229928
     7  H    0.064528
     8  H    0.104739
     9  H    0.129240
    10  C    0.404702
    11  O   -0.320113
    12  C   -0.179736
    13  H    0.053820
    14  H    0.050054
    15  H    0.012576
    16  C   -0.257521
    17  H    0.052664
    18  H    0.051248
    19  H    0.047965
    20  C   -0.153818
    21  C    0.242648
    22  C   -0.165440
    23  C    0.121830
    24  C   -0.151440
    25  H    0.122718
    26  C   -0.220127
    27  H    0.119542
    28  H    0.131144
    29  B    0.385893
    30  N   -0.057755
    31  C   -0.096902
    32  H    0.031879
    33  H    0.059702
    34  H    0.017775
    35  C   -0.082889
    36  H    0.045695
    37  H    0.034603
    38  H    0.053857
    39  C   -0.194769
    40  C   -0.025652
    41  C    0.052473
    42  C   -0.075021
    43  H   -0.017562
    44  C   -0.122140
    45  H   -0.014861
    46  C   -0.115541
    47  H    0.098258
    48  H    0.101869
    49  H    0.098009
    50  C   -0.108871
    51  C   -0.052888
    52  C    0.034359
    53  C   -0.137536
    54  H    0.050692
    55  C   -0.182359
    56  H    0.065967
    57  C   -0.041069
    58  H    0.107700
    59  H    0.109318
    60  H    0.093064
 Sum of ESP charges =   0.00000

 Normal termination of Gaussian 16 at Thu Apr 11 14:09:25 2024.
