 Gaussian 16, Revision C.02,
 Gaussian 16:  AS64L-G16RevC.02  7-Dec-2021

 ----------------------------------------------------------------------
 # wb97xd/genecp scrf=(solvent=toluene,pcm) nosymm pop=(chelpg) scfcyc=
 300
 ----------------------------------------------------------------------

 ----------------------
 tbu_biphenylene_chelpg
 ----------------------
 Symbolic Z-matrix:
 Charge =  0 Multiplicity = 1

                          Input orientation:
 ---------------------------------------------------------------------
 Center     Atomic      Atomic             Coordinates (Angstroms)
 Number     Number       Type             X           Y           Z
 ---------------------------------------------------------------------
      1          6           0        1.895403    2.495063   -0.123748
      2          6           0        1.909756    2.578708   -1.538342
      3          6           0        1.320564    3.958989   -1.470447
      4          6           0        1.277775    3.882136   -0.061814
      5          6           0        0.963172    5.070615   -2.182357
      6          6           0        0.833369    4.935475    0.717343
      7          6           0        0.524002    6.157781   -1.399510
      8          1           0        1.014492    5.133553   -3.262063
      9          6           0        0.455421    6.094310   -0.019255
     10          1           0        0.216540    7.075673   -1.888953
     11          1           0        0.087329    6.963060    0.511053
     12          6           0        2.437342    1.606481   -2.335365
     13          1           0        2.470094    1.669891   -3.416459
     14          6           0        2.975278    0.494277   -1.646271
     15          1           0        3.417165   -0.318372   -2.212721
     16          6           0        2.973239    0.421754   -0.266880
     17          6           0        2.431923    1.440544    0.578123
     18          1           0        3.438009   -0.445858    0.187971
     19          5           0        2.589261    1.346827    2.149981
     20          7           0        0.764678    4.874967    2.112747
     21          6           0        0.385636    6.074906    2.831161
     22          1           0       -0.668437    6.356378    2.677734
     23          1           0        0.538856    5.901595    3.898164
     24          1           0        1.020243    6.911635    2.535132
     25          6           0        0.151726    3.673227    2.647050
     26          1           0        0.340652    3.608242    3.719942
     27          1           0       -0.935643    3.649551    2.477094
     28          1           0        0.578741    2.790887    2.173869
     29          6           0        3.763707    2.242768    2.799625
     30          6           0        1.695524    0.245896    2.917928
     31          6           0        4.479494    3.114233    1.749438
     32          1           0        4.888612    2.517063    0.929785
     33          1           0        3.803069    3.855015    1.313600
     34          1           0        5.308676    3.656708    2.219084
     35          6           0        3.294823    3.194713    3.918041
     36          1           0        4.168479    3.707624    4.338630
     37          1           0        2.628640    3.964151    3.519273
     38          1           0        2.790383    2.682148    4.736683
     39          6           0        4.814220    1.271037    3.386693
     40          1           0        5.678774    1.845245    3.739675
     41          1           0        4.427300    0.702164    4.235060
     42          1           0        5.180191    0.560118    2.637855
     43          6           0        1.446317    0.504959    4.412201
     44          1           0        2.372718    0.549228    4.989020
     45          1           0        0.900109    1.437726    4.576732
     46          1           0        0.839950   -0.307099    4.830829
     47          6           0        0.325808    0.032812    2.241347
     48          1           0        0.427936   -0.181461    1.175091
     49          1           0       -0.190932   -0.813674    2.708879
     50          1           0       -0.326486    0.904288    2.344669
     51          6           0        2.457918   -1.102362    2.798023
     52          1           0        1.899123   -1.868071    3.348505
     53          1           0        2.529614   -1.443546    1.763378
     54          1           0        3.463956   -1.063369    3.220072
 ---------------------------------------------------------------------

 SCF Done:  E(RwB97XD) =  -935.896857752     A.U. after   17 cycles

 Alpha  occ. eigenvalues --  -14.45100 -10.33402 -10.31287 -10.31051 -10.30133
 Alpha  occ. eigenvalues --  -10.30056 -10.29781 -10.29531 -10.29279 -10.28992
 Alpha  occ. eigenvalues --  -10.28974 -10.28879 -10.28842 -10.28617 -10.27959
 Alpha  occ. eigenvalues --  -10.27824 -10.27507 -10.27394 -10.27136 -10.26806
 Alpha  occ. eigenvalues --  -10.26457 -10.26237 -10.25676  -6.85362  -1.05737
 Alpha  occ. eigenvalues --   -1.00535  -0.94539  -0.91164  -0.90013  -0.89478
 Alpha  occ. eigenvalues --   -0.85964  -0.84552  -0.82579  -0.80171  -0.78506
 Alpha  occ. eigenvalues --   -0.77949  -0.77479  -0.76939  -0.76315  -0.72607
 Alpha  occ. eigenvalues --   -0.71227  -0.67722  -0.66586  -0.64267  -0.63462
 Alpha  occ. eigenvalues --   -0.62247  -0.58349  -0.57709  -0.57502  -0.56099
 Alpha  occ. eigenvalues --   -0.55756  -0.54686  -0.54244  -0.53647  -0.52987
 Alpha  occ. eigenvalues --   -0.52108  -0.51627  -0.51101  -0.50504  -0.50312
 Alpha  occ. eigenvalues --   -0.49823  -0.49107  -0.48364  -0.48101  -0.47314
 Alpha  occ. eigenvalues --   -0.47032  -0.46429  -0.45862  -0.45335  -0.45231
 Alpha  occ. eigenvalues --   -0.44424  -0.44192  -0.43797  -0.42803  -0.42533
 Alpha  occ. eigenvalues --   -0.41796  -0.41445  -0.40806  -0.40017  -0.39751
 Alpha  occ. eigenvalues --   -0.37873  -0.36939  -0.36043  -0.35801  -0.32346
 Alpha  occ. eigenvalues --   -0.28859  -0.26722
 Alpha virt. eigenvalues --    0.00950   0.02625   0.03794   0.04226   0.04534
 Alpha virt. eigenvalues --    0.04628   0.05044   0.05685   0.05845   0.06259
 Alpha virt. eigenvalues --    0.06529   0.07210   0.07232   0.07338   0.08154

 Mulliken charges:
               1
     1  C   -0.062226
     2  C    0.431368
     3  C    0.439190
     4  C   -0.422438
     5  C   -0.330992
     6  C   -0.015628
     7  C   -0.552068
     8  H    0.209689
     9  C   -0.124097
    10  H    0.232554
    11  H    0.203826
    12  C   -0.173802
    13  H    0.217636
    14  C   -0.285207
    15  H    0.237666
    16  C   -0.272925
    17  C    0.802081
    18  H    0.195514
    19  B   -1.445013
    20  N    0.264623
    21  C   -0.376415
    22  H    0.169007
    23  H    0.162516
    24  H    0.170598
    25  C   -0.603754
    26  H    0.181692
    27  H    0.221813
    28  H    0.149408
    29  C   -0.090838
    30  C    0.062484
    31  C   -0.356132
    32  H    0.230313
    33  H    0.171784
    34  H    0.180570
    35  C   -0.480315
    36  H    0.169704
    37  H    0.231406
    38  H    0.153103
    39  C   -0.405216
    40  H    0.177436
    41  H    0.195227
    42  H    0.203556
    43  C   -0.379282
    44  H    0.179963
    45  H    0.135756
    46  H    0.175783
    47  C   -0.693906
    48  H    0.239706
    49  H    0.185771
    50  H    0.145732
    51  C   -0.535901
    52  H    0.174379
    53  H    0.149753
    54  H    0.154548
 Sum of Mulliken charges =  -0.00000

 Dipole moment (field-independent basis, Debye):
    X=             -0.7679    Y=              0.5133    Z=              1.5287  Tot=              1.7861
 Quadrupole moment (field-independent basis, Debye-Ang):
   XX=           -153.8152   YY=           -136.2575   ZZ=           -137.4742
   XY=             -9.1136   XZ=             -1.4028   YZ=              6.6680

 ESP charges:
               1
     1  C   -0.013810
     2  C    0.051019
     3  C    0.103676
     4  C   -0.129545
     5  C   -0.248289
     6  C    0.273287
     7  C   -0.072171
     8  H    0.139798
     9  C   -0.272201
    10  H    0.108949
    11  H    0.137430
    12  C   -0.200707
    13  H    0.130644
    14  C   -0.103713
    15  H    0.104089
    16  C   -0.151607
    17  C    0.058527
    18  H    0.078079
    19  B    0.273673
    20  N   -0.202360
    21  C   -0.122001
    22  H    0.051389
    23  H    0.075570
    24  H    0.073904
    25  C    0.102420
    26  H    0.068843
    27  H    0.004556
    28  H   -0.077878
    29  C    0.255477
    30  C    0.261377
    31  C   -0.053136
    32  H   -0.047528
    33  H   -0.048271
    34  H    0.018991
    35  C   -0.258693
    36  H    0.051581
    37  H    0.012763
    38  H    0.050005
    39  C   -0.317731
    40  H    0.068812
    41  H    0.067013
    42  H    0.059263
    43  C   -0.415723
    44  H    0.096386
    45  H    0.073519
    46  H    0.089433
    47  C   -0.177835
    48  H   -0.042883
    49  H    0.060132
    50  H    0.029560
    51  C   -0.191205
    52  H    0.042674
    53  H    0.043620
    54  H    0.030829
 Sum of ESP charges =  -0.00000

 Normal termination of Gaussian 16 at Wed Apr 10 17:10:24 2024.
