 Gaussian 16, Revision C.02,
 Gaussian 16:  AS64L-G16RevC.02  7-Dec-2021

 ----------------------------------------------------------------------
 # wb97xd/genecp scrf=(solvent=toluene,pcm) nosymm pop=(chelpg) scfcyc=
 300
 ----------------------------------------------------------------------

 ----------------------
 tbu_naphthalene_chelpg
 ----------------------
 Symbolic Z-matrix:
 Charge =  0 Multiplicity = 1

                          Input orientation:
 ---------------------------------------------------------------------
 Center     Atomic      Atomic             Coordinates (Angstroms)
 Number     Number       Type             X           Y           Z
 ---------------------------------------------------------------------
      1          6           0       -5.378921   -0.822544    0.537585
      2          6           0       -4.065984   -0.840129    0.168739
      3          6           0       -3.346584    0.347861   -0.055076
      4          6           0       -3.989184    1.597521    0.020331
      5          6           0       -5.358191    1.610555    0.401173
      6          6           0       -6.016877    0.438547    0.671868
      7          1           0       -5.941564   -1.731546    0.714448
      8          6           0       -1.963424    0.171898   -0.303676
      9          6           0       -3.203044    2.740470   -0.268741
     10          1           0       -5.878211    2.559304    0.485372
     11          1           0       -7.057509    0.464942    0.975017
     12          6           0       -1.874822    2.586321   -0.583248
     13          6           0       -1.249135    1.314235   -0.584575
     14          1           0       -3.653867    3.726873   -0.236126
     15          1           0       -1.277719    3.464050   -0.809081
     16          1           0       -0.181924    1.265720   -0.777687
     17          5           0       -1.507243   -1.344500    0.031101
     18          7           0       -3.263181   -2.011596   -0.184537
     19          6           0       -3.609298   -3.236251    0.566415
     20          1           0       -4.628723   -3.554574    0.330530
     21          1           0       -2.920501   -4.026111    0.272695
     22          1           0       -3.526263   -3.068858    1.634135
     23          6           0       -3.617279   -2.271950   -1.611064
     24          1           0       -3.054933   -3.121760   -1.985733
     25          1           0       -4.686622   -2.489378   -1.675897
     26          1           0       -3.398375   -1.387955   -2.203558
     27          6           0       -0.467481   -2.083570   -1.047334
     28          6           0       -0.636576   -1.599761   -2.507470
     29          1           0        0.180609   -1.995492   -3.123740
     30          1           0       -1.561648   -1.927411   -2.978625
     31          1           0       -0.600687   -0.509624   -2.575652
     32          6           0        0.995925   -1.717879   -0.706458
     33          1           0        1.657471   -2.102856   -1.492349
     34          1           0        1.151528   -0.636917   -0.653327
     35          1           0        1.331633   -2.155951    0.233803
     36          6           0       -0.517592   -3.625964   -1.060912
     37          1           0        0.276741   -4.018369   -1.708948
     38          1           0       -0.369325   -4.057144   -0.069648
     39          1           0       -1.455799   -4.024227   -1.454293
     40          6           0       -1.143704   -1.405865    1.685422
     41          6           0       -0.693043   -2.786760    2.204463
     42          1           0        0.239285   -3.113136    1.739490
     43          1           0       -0.508897   -2.738704    3.285525
     44          1           0       -1.432089   -3.573880    2.040148
     45          6           0        0.010202   -0.422593    2.011368
     46          1           0        0.180314   -0.418284    3.095244
     47          1           0        0.956306   -0.684744    1.543763
     48          1           0       -0.238536    0.600333    1.719173
     49          6           0       -2.278127   -0.911099    2.617821
     50          1           0       -1.930778   -0.956113    3.657185
     51          1           0       -2.544794    0.128349    2.412204
     52          1           0       -3.200287   -1.490811    2.573250
 ---------------------------------------------------------------------

 SCF Done:  E(RwB97XD) =  -859.768888987     A.U. after   16 cycles

 Alpha  occ. eigenvalues --  -14.50830 -10.33144 -10.32287 -10.32148 -10.29885
 Alpha  occ. eigenvalues --  -10.29877 -10.29710 -10.29323 -10.28783 -10.28710
 Alpha  occ. eigenvalues --  -10.28483 -10.27920 -10.26418 -10.26397 -10.26342
 Alpha  occ. eigenvalues --  -10.25942 -10.25554 -10.25524 -10.25267 -10.25224
 Alpha  occ. eigenvalues --  -10.24787  -6.82790  -1.08302  -0.97970  -0.92657
 Alpha  occ. eigenvalues --   -0.89482  -0.88382  -0.87808  -0.84729  -0.82937
 Alpha  occ. eigenvalues --   -0.82080  -0.77623  -0.77107  -0.76847  -0.76312
 Alpha  occ. eigenvalues --   -0.75418  -0.72258  -0.71072  -0.67658  -0.65763
 Alpha  occ. eigenvalues --   -0.61975  -0.61809  -0.60786  -0.60224  -0.58437
 Alpha  occ. eigenvalues --   -0.56699  -0.56587  -0.55382  -0.53496  -0.52664
 Alpha  occ. eigenvalues --   -0.52464  -0.51746  -0.50832  -0.50398  -0.49747
 Alpha  occ. eigenvalues --   -0.49362  -0.49114  -0.48783  -0.48456  -0.47768
 Alpha  occ. eigenvalues --   -0.46989  -0.46063  -0.46012  -0.45200  -0.44680
 Alpha  occ. eigenvalues --   -0.43924  -0.43835  -0.43220  -0.42666  -0.41842
 Alpha  occ. eigenvalues --   -0.41582  -0.40739  -0.40442  -0.38618  -0.37723
 Alpha  occ. eigenvalues --   -0.36905  -0.36475  -0.34028  -0.33092  -0.32040
 Alpha  occ. eigenvalues --   -0.28200
 Alpha virt. eigenvalues --    0.01661   0.03680   0.04320   0.04506   0.04620
 Alpha virt. eigenvalues --    0.05121   0.05827   0.05860   0.06281   0.06744
 Alpha virt. eigenvalues --    0.07214   0.07457   0.07769   0.08020   0.08368

 Mulliken charges:
               1
     1  C   -0.320872
     2  C    0.531539
     3  C    0.095453
     4  C    0.165721
     5  C   -0.026676
     6  C   -0.658426
     7  H    0.203069
     8  C    0.150435
     9  C   -0.479590
    10  H    0.221870
    11  H    0.237786
    12  C   -0.211702
    13  C   -0.182591
    14  H    0.209194
    15  H    0.233314
    16  H    0.219845
    17  B   -1.140358
    18  N   -0.272777
    19  C   -0.147456
    20  H    0.187886
    21  H    0.252383
    22  H    0.208181
    23  C   -0.248481
    24  H    0.230681
    25  H    0.242083
    26  H    0.275905
    27  C   -0.201697
    28  C   -0.359821
    29  H    0.165576
    30  H    0.102553
    31  H    0.203529
    32  C   -0.450349
    33  H    0.155623
    34  H    0.156446
    35  H    0.166865
    36  C   -0.369970
    37  H    0.172949
    38  H    0.157890
    39  H    0.104247
    40  C   -0.037964
    41  C   -0.371014
    42  H    0.153818
    43  H    0.154283
    44  H    0.128751
    45  C   -0.513726
    46  H    0.167123
    47  H    0.117523
    48  H    0.209552
    49  C   -0.546561
    50  H    0.180404
    51  H    0.218884
    52  H    0.158670
 Sum of Mulliken charges =  -0.00000

 Dipole moment (field-independent basis, Debye):
    X=             -3.6481    Y=             -1.9215    Z=             -0.7569  Tot=              4.1921
 Quadrupole moment (field-independent basis, Debye-Ang):
   XX=           -115.7670   YY=           -126.5379   ZZ=           -144.5899
   XY=             13.2263   XZ=              0.0554   YZ=              0.7164

 ESP charges:
               1
     1  C   -0.120299
     2  C    0.121719
     3  C    0.051535
     4  C    0.195974
     5  C   -0.261120
     6  C   -0.133804
     7  H    0.121548
     8  C   -0.031634
     9  C   -0.291833
    10  H    0.144357
    11  H    0.118446
    12  C   -0.088158
    13  C   -0.089415
    14  H    0.141906
    15  H    0.095899
    16  H    0.093277
    17  B   -0.092076
    18  N   -0.136094
    19  C   -0.250395
    20  H    0.110440
    21  H    0.118345
    22  H    0.132102
    23  C   -0.028539
    24  H    0.104434
    25  H    0.042170
    26  H    0.005994
    27  C    0.470107
    28  C   -0.163054
    29  H    0.015093
    30  H    0.031174
    31  H   -0.036976
    32  C   -0.397360
    33  H    0.074016
    34  H    0.081948
    35  H    0.071458
    36  C   -0.391220
    37  H    0.065468
    38  H    0.081381
    39  H    0.049319
    40  C    0.632210
    41  C   -0.520465
    42  H    0.098525
    43  H    0.085894
    44  H    0.081952
    45  C   -0.339002
    46  H    0.044289
    47  H    0.053127
    48  H    0.021081
    49  C   -0.144280
    50  H    0.006380
    51  H   -0.015148
    52  H   -0.030699
 Sum of ESP charges =  -0.00000

 Normal termination of Gaussian 16 at Wed Apr 10 16:55:21 2024.
