 Gaussian 16, Revision C.02,
 Gaussian 16:  AS64L-G16RevC.02  7-Dec-2021

 ----------------------------------------------------------------------
 # wb97xd/genecp scrf=(solvent=toluene,pcm) nosymm pop=(chelpg) scfcyc=
 300
 ----------------------------------------------------------------------

 -------------------
 tbu_xanthene_chelpg
 -------------------
 Symbolic Z-matrix:
 Charge =  0 Multiplicity = 1

                          Input orientation:
 ---------------------------------------------------------------------
 Center     Atomic      Atomic             Coordinates (Angstroms)
 Number     Number       Type             X           Y           Z
 ---------------------------------------------------------------------
      1          6           0       -2.024902    1.177125    0.789976
      2          6           0       -0.659641    0.896766    0.847978
      3          6           0        0.283045    1.855302    0.489270
      4          6           0       -0.121810    3.120379    0.083476
      5          6           0       -1.475498    3.448795    0.031204
      6          6           0       -2.382175    2.455034    0.376421
      7          1           0       -0.322894   -0.088670    1.153214
      8          1           0        1.339762    1.615149    0.526228
      9          1           0        0.626698    3.854526   -0.187962
     10          6           0       -2.030215    4.824512   -0.316289
     11          8           0       -3.741187    2.699477    0.317152
     12          6           0       -1.028889    5.665428   -1.109674
     13          1           0       -1.436332    6.657258   -1.315793
     14          1           0       -0.115296    5.818356   -0.531482
     15          1           0       -0.765260    5.191468   -2.058533
     16          6           0       -2.360989    5.559797    1.004382
     17          1           0       -1.449248    5.706277    1.590452
     18          1           0       -2.802937    6.537043    0.790241
     19          1           0       -3.068462    4.987726    1.609225
     20          6           0       -3.336059    4.605116   -1.077784
     21          6           0       -4.164074    3.569063   -0.658131
     22          6           0       -3.767537    5.406920   -2.134553
     23          6           0       -5.439872    3.345790   -1.206248
     24          6           0       -5.002295    5.184605   -2.722496
     25          1           0       -3.140008    6.208541   -2.501841
     26          6           0       -5.837698    4.177440   -2.253850
     27          1           0       -5.329740    5.810638   -3.544781
     28          1           0       -6.807348    4.035703   -2.713571
     29          5           0       -3.187645    0.134917    1.069094
     30          7           0       -6.229064    2.284980   -0.723533
     31          6           0       -6.637740    2.388919    0.671155
     32          1           0       -7.465786    3.104080    0.800313
     33          1           0       -6.970545    1.408913    1.025518
     34          1           0       -5.801052    2.706410    1.288592
     35          6           0       -7.313884    1.841436   -1.574809
     36          1           0       -7.696430    0.895125   -1.184159
     37          1           0       -8.156078    2.551987   -1.615840
     38          1           0       -6.949730    1.666554   -2.588772
     39          6           0       -3.671777   -0.719927   -0.195387
     40          6           0       -3.590501   -0.067017    2.608239
     41          6           0       -2.868694   -2.038947   -0.059352
     42          1           0       -3.157411   -2.604819    0.831219
     43          1           0       -3.061240   -2.672016   -0.933494
     44          1           0       -1.788072   -1.862434   -0.017999
     45          6           0       -5.171157   -1.052199   -0.266124
     46          1           0       -5.763544   -0.134915   -0.270782
     47          1           0       -5.381498   -1.586076   -1.201029
     48          1           0       -5.508119   -1.686381    0.552287
     49          6           0       -3.291740   -0.060883   -1.534382
     50          1           0       -2.223237    0.157550   -1.600317
     51          1           0       -3.550469   -0.728382   -2.365117
     52          1           0       -3.840093    0.874911   -1.676412
     53          6           0       -4.842906   -0.904520    2.898799
     54          1           0       -5.739400   -0.460703    2.458136
     55          1           0       -4.749560   -1.927331    2.524468
     56          1           0       -5.002814   -0.968008    3.981999
     57          6           0       -2.382019   -0.776562    3.270501
     58          1           0       -1.475990   -0.167939    3.226303
     59          1           0       -2.607633   -0.955738    4.328265
     60          1           0       -2.167048   -1.747218    2.812482
     61          6           0       -3.762184    1.298788    3.303753
     62          1           0       -2.877940    1.930225    3.186970
     63          1           0       -4.620558    1.845908    2.906147
     64          1           0       -3.931208    1.149072    4.376798
 ---------------------------------------------------------------------

 SCF Done:  E(RwB97XD) =  -1129.13091735     A.U. after   17 cycles

 Alpha  occ. eigenvalues --  -19.29416 -14.44211 -10.34661 -10.34393 -10.32653
 Alpha  occ. eigenvalues --  -10.31651 -10.30489 -10.30260 -10.29789 -10.29592
 Alpha  occ. eigenvalues --  -10.28712 -10.28699 -10.28546 -10.28485 -10.28391
 Alpha  occ. eigenvalues --  -10.28353 -10.27569 -10.27449 -10.27432 -10.27216
 Alpha  occ. eigenvalues --  -10.27098 -10.27092 -10.26998 -10.26326 -10.26311
 Alpha  occ. eigenvalues --  -10.25685 -10.25378  -6.84861  -1.19637  -1.04756
 Alpha  occ. eigenvalues --   -0.97061  -0.96306  -0.92017  -0.90649  -0.89202
 Alpha  occ. eigenvalues --   -0.86723  -0.84877  -0.83695  -0.82411  -0.81214
 Alpha  occ. eigenvalues --   -0.79104  -0.78216  -0.77637  -0.77378  -0.76450
 Alpha  occ. eigenvalues --   -0.75625  -0.73464  -0.72875  -0.69357  -0.67148
 Alpha  occ. eigenvalues --   -0.66058  -0.64488  -0.64200  -0.63174  -0.60125
 Alpha  occ. eigenvalues --   -0.58287  -0.57664  -0.56692  -0.56284  -0.56060
 Alpha  occ. eigenvalues --   -0.55250  -0.54533  -0.53686  -0.53346  -0.53095
 Alpha  occ. eigenvalues --   -0.52665  -0.51939  -0.51302  -0.51073  -0.50810
 Alpha  occ. eigenvalues --   -0.49758  -0.49297  -0.48588  -0.48055  -0.47581
 Alpha  occ. eigenvalues --   -0.47460  -0.47255  -0.46802  -0.46379  -0.46157
 Alpha  occ. eigenvalues --   -0.45573  -0.45350  -0.45099  -0.44753  -0.44730
 Alpha  occ. eigenvalues --   -0.44156  -0.44092  -0.43814  -0.43492  -0.42402
 Alpha  occ. eigenvalues --   -0.41673  -0.41034  -0.40474  -0.40094  -0.39848
 Alpha  occ. eigenvalues --   -0.39344  -0.36026  -0.35728  -0.35318  -0.32579
 Alpha  occ. eigenvalues --   -0.31712  -0.30089  -0.27636
 Alpha virt. eigenvalues --    0.03719   0.04258   0.04443   0.04728   0.04796
 Alpha virt. eigenvalues --    0.05291   0.05582   0.05734   0.05828   0.06018
 Alpha virt. eigenvalues --    0.06315   0.06372   0.06624   0.07144   0.07268

 Mulliken charges:
               1
     1  C    0.856034
     2  C   -0.399172
     3  C   -0.603661
     4  C   -0.144956
     5  C    0.238535
     6  C    0.025066
     7  H    0.218655
     8  H    0.239903
     9  H    0.175536
    10  C   -0.235457
    11  O    0.003160
    12  C   -0.403795
    13  H    0.168506
    14  H    0.169470
    15  H    0.206315
    16  C   -0.765935
    17  H    0.188531
    18  H    0.192971
    19  H    0.162041
    20  C    0.399187
    21  C    0.170765
    22  C   -0.260330
    23  C   -0.361714
    24  C   -0.677838
    25  H    0.167686
    26  C   -0.062641
    27  H    0.242319
    28  H    0.194349
    29  B   -1.073449
    30  N    0.358492
    31  C   -0.238425
    32  H    0.189622
    33  H    0.180515
    34  H    0.143469
    35  C   -0.348847
    36  H    0.175885
    37  H    0.164661
    38  H    0.180963
    39  C    0.164843
    40  C   -0.058125
    41  C   -0.496144
    42  H    0.209780
    43  H    0.191344
    44  H    0.210193
    45  C   -0.562370
    46  H   -0.007906
    47  H    0.170100
    48  H    0.140235
    49  C   -0.436001
    50  H    0.238280
    51  H    0.178490
    52  H    0.122523
    53  C   -0.440331
    54  H    0.159212
    55  H    0.176057
    56  H    0.168275
    57  C   -0.586651
    58  H    0.198508
    59  H    0.177558
    60  H    0.173588
    61  C   -0.478477
    62  H    0.218747
    63  H    0.132379
    64  H    0.199476
 Sum of Mulliken charges =  -0.00000

 Dipole moment (field-independent basis, Debye):
    X=             -0.4946    Y=              0.6782    Z=             -0.1448  Tot=              0.8518
 Quadrupole moment (field-independent basis, Debye-Ang):
   XX=           -158.5333   YY=           -164.7724   ZZ=           -175.0369
   XY=             -0.7352   XZ=              3.3632   YZ=             -4.4724

 ESP charges:
               1
     1  C   -0.026385
     2  C   -0.094171
     3  C   -0.198103
     4  C   -0.111126
     5  C   -0.202080
     6  C    0.307077
     7  H    0.105732
     8  H    0.114977
     9  H    0.116683
    10  C    0.471201
    11  O   -0.384350
    12  C   -0.235753
    13  H    0.067991
    14  H    0.064417
    15  H    0.028191
    16  C   -0.348561
    17  H    0.076121
    18  H    0.063071
    19  H    0.093111
    20  C   -0.136599
    21  C    0.205464
    22  C   -0.172069
    23  C    0.145824
    24  C   -0.129333
    25  H    0.122773
    26  C   -0.225958
    27  H    0.112877
    28  H    0.131909
    29  B    0.256412
    30  N   -0.000814
    31  C   -0.322702
    32  H    0.068957
    33  H    0.142669
    34  H    0.134112
    35  C   -0.112346
    36  H    0.065276
    37  H    0.046855
    38  H    0.057903
    39  C    0.184925
    40  C    0.199783
    41  C   -0.164153
    42  H    0.036370
    43  H    0.032398
    44  H    0.018912
    45  C   -0.295531
    46  H    0.027442
    47  H    0.059892
    48  H    0.061425
    49  C   -0.042992
    50  H   -0.058192
    51  H    0.035470
    52  H   -0.077808
    53  C   -0.392073
    54  H    0.066429
    55  H    0.093149
    56  H    0.076687
    57  C   -0.087555
    58  H   -0.031396
    59  H    0.028552
    60  H    0.008170
    61  C   -0.020264
    62  H   -0.058551
    63  H   -0.013041
    64  H    0.012702
 Sum of ESP charges =  -0.00000

 Normal termination of Gaussian 16 at Wed Apr 10 16:37:29 2024.
