 Gaussian 16, Revision C.02,
 Gaussian 16:  AS64L-G16RevC.02  7-Dec-2021

 ----------------------------------------------------------------------
 # wb97xd/genecp scrf=(solvent=toluene,pcm) nosymm pop=(chelpg) scfcyc=
 300
 ----------------------------------------------------------------------

 -----------------
 tbu_indole_chelpg
 -----------------
 Symbolic Z-matrix:
 Charge =  0 Multiplicity = 1

                          Input orientation:
 ---------------------------------------------------------------------
 Center     Atomic      Atomic             Coordinates (Angstroms)
 Number     Number       Type             X           Y           Z
 ---------------------------------------------------------------------
      1          6           0       -1.148941   -1.392031   -0.129459
      2          6           0       -2.500015   -1.485057    0.096773
      3          6           0       -1.941185    0.717148   -0.078399
      4          6           0       -2.090590    2.105559   -0.133878
      5          6           0       -3.354938    2.640841    0.057465
      6          6           0       -4.446670    1.777424    0.293526
      7          6           0       -4.299171    0.404022    0.337101
      8          6           0       -3.027734   -0.152115    0.144317
      9          1           0       -1.240521    2.754581   -0.319319
     10          1           0       -5.430535    2.212573    0.441353
     11          1           0       -5.158479   -0.234197    0.514880
     12          7           0       -0.811443   -0.052031   -0.225259
     13          1           0       -3.052939   -2.400889    0.242198
     14          5           0       -0.036194   -2.516821   -0.152559
     15          6           0        0.492861    0.473702   -0.556984
     16          1           0        0.776253    1.262677    0.144390
     17          1           0        1.238015   -0.320755   -0.488192
     18          1           0        0.511877    0.877088   -1.574033
     19          6           0       -3.579159    4.131331    0.018781
     20          1           0       -3.970143    4.495259    0.973702
     21          1           0       -2.651543    4.668275   -0.190520
     22          1           0       -4.305513    4.400127   -0.753964
     23          6           0        0.768821   -2.737975    1.211101
     24          6           0        0.058513   -3.377817   -1.496520
     25          6           0        0.547242   -1.612449    2.237815
     26          1           0        0.992702   -1.891381    3.199773
     27          1           0        1.018113   -0.677097    1.920984
     28          1           0       -0.514237   -1.411221    2.400996
     29          6           0        0.113596   -4.024538    1.779744
     30          1           0        0.289398   -4.895946    1.144045
     31          1           0        0.537208   -4.239229    2.767588
     32          1           0       -0.968079   -3.906351    1.907882
     33          6           0        2.285461   -2.956370    1.075423
     34          1           0        2.536537   -3.862367    0.526237
     35          1           0        2.771079   -2.112321    0.573557
     36          1           0        2.733919   -3.041414    2.072165
     37          6           0        1.247700   -4.336387   -1.646605
     38          1           0        2.201483   -3.802775   -1.662229
     39          1           0        1.286923   -5.080362   -0.846816
     40          1           0        1.163188   -4.882535   -2.593608
     41          6           0       -1.242394   -4.213802   -1.573754
     42          1           0       -2.133595   -3.582829   -1.574752
     43          1           0       -1.243566   -4.792340   -2.504877
     44          1           0       -1.321193   -4.923988   -0.744515
     45          6           0        0.074786   -2.410060   -2.700316
     46          1           0       -0.797575   -1.751774   -2.702552
     47          1           0        0.973669   -1.783656   -2.702895
     48          1           0        0.072306   -2.980318   -3.636544
 ---------------------------------------------------------------------

 SCF Done:  E(RwB97XD) =  -782.364603194     A.U. after   15 cycles

 Alpha  occ. eigenvalues --  -14.47480 -10.32621 -10.30868 -10.29494 -10.28859
 Alpha  occ. eigenvalues --  -10.28030 -10.28022 -10.27997 -10.27905 -10.27755
 Alpha  occ. eigenvalues --  -10.27651 -10.27323 -10.27178 -10.27154 -10.27003
 Alpha  occ. eigenvalues --  -10.26994 -10.26744 -10.26444 -10.26320  -6.85599
 Alpha  occ. eigenvalues --   -1.08898  -0.94968  -0.91464  -0.90195  -0.89854
 Alpha  occ. eigenvalues --   -0.84735  -0.84310  -0.78835  -0.78560  -0.78366
 Alpha  occ. eigenvalues --   -0.77898  -0.77342  -0.76778  -0.70692  -0.67616
 Alpha  occ. eigenvalues --   -0.67311  -0.64091  -0.63860  -0.60822  -0.57534
 Alpha  occ. eigenvalues --   -0.56886  -0.56430  -0.54553  -0.53739  -0.53195
 Alpha  occ. eigenvalues --   -0.52973  -0.52098  -0.51754  -0.51405  -0.50492
 Alpha  occ. eigenvalues --   -0.50246  -0.49562  -0.48054  -0.47843  -0.47281
 Alpha  occ. eigenvalues --   -0.47174  -0.46332  -0.45975  -0.45828  -0.45397
 Alpha  occ. eigenvalues --   -0.44789  -0.44465  -0.43251  -0.42189  -0.41438
 Alpha  occ. eigenvalues --   -0.41131  -0.40665  -0.40345  -0.40084  -0.37209
 Alpha  occ. eigenvalues --   -0.35906  -0.34853  -0.28858  -0.26879
 Alpha virt. eigenvalues --    0.02832   0.03755   0.04509   0.04800   0.05006
 Alpha virt. eigenvalues --    0.05354   0.05787   0.06065   0.06533   0.06756
 Alpha virt. eigenvalues --    0.07189   0.07543   0.07639   0.07753   0.08366

 Mulliken charges:
               1
     1  C   -0.354518
     2  C   -0.647383
     3  C    0.192116
     4  C   -0.814944
     5  C    0.429260
     6  C   -0.522022
     7  C   -0.203932
     8  C    0.487569
     9  H    0.160591
    10  H    0.196491
    11  H    0.207438
    12  N    0.519741
    13  H    0.241130
    14  B   -0.274600
    15  C   -0.478665
    16  H    0.210238
    17  H    0.181257
    18  H    0.249204
    19  C   -0.424501
    20  H    0.183369
    21  H    0.173263
    22  H    0.179690
    23  C   -0.135495
    24  C    0.012314
    25  C   -0.411746
    26  H    0.184656
    27  H    0.169994
    28  H    0.208304
    29  C   -0.519900
    30  H    0.199646
    31  H    0.197830
    32  H    0.223051
    33  C   -0.419126
    34  H    0.141406
    35  H    0.185568
    36  H    0.169358
    37  C   -0.448251
    38  H    0.171217
    39  H    0.165193
    40  H    0.169740
    41  C   -0.628087
    42  H    0.173135
    43  H    0.172189
    44  H    0.177604
    45  C   -0.629098
    46  H    0.222990
    47  H    0.159160
    48  H    0.197561
 Sum of Mulliken charges =  -0.00000

 Dipole moment (field-independent basis, Debye):
    X=              2.5415    Y=             -0.3199    Z=             -0.4412  Tot=              2.5993
 Quadrupole moment (field-independent basis, Debye-Ang):
   XX=           -128.2697   YY=           -118.0971   ZZ=           -129.6712
   XY=              1.2875   XZ=             -1.5559   YZ=             -1.4761

 ESP charges:
               1
     1  C    0.009403
     2  C   -0.386204
     3  C    0.109860
     4  C   -0.336770
     5  C    0.198076
     6  C   -0.259919
     7  C   -0.196460
     8  C    0.127918
     9  H    0.149796
    10  H    0.136497
    11  H    0.128109
    12  N   -0.052800
    13  H    0.171919
    14  B    0.288480
    15  C   -0.072931
    16  H    0.078393
    17  H    0.058380
    18  H    0.064682
    19  C   -0.256405
    20  H    0.071907
    21  H    0.076791
    22  H    0.070971
    23  C    0.269612
    24  C    0.280140
    25  C   -0.116785
    26  H    0.038467
    27  H   -0.001712
    28  H   -0.040940
    29  C   -0.182441
    30  H    0.036404
    31  H    0.049540
    32  H    0.021855
    33  C   -0.479719
    34  H    0.109293
    35  H    0.097617
    36  H    0.103869
    37  C   -0.513422
    38  H    0.102059
    39  H    0.114774
    40  H    0.110059
    41  C   -0.054971
    42  H   -0.033192
    43  H    0.014812
    44  H   -0.002531
    45  C   -0.126895
    46  H   -0.023770
    47  H    0.012274
    48  H    0.035911
 Sum of ESP charges =   0.00000

 Normal termination of Gaussian 16 at Wed Apr 10 15:48:02 2024.
