 Gaussian 16, Revision C.02,
 Gaussian 16:  AS64L-G16RevC.02  7-Dec-2021

 ----------------------------------------------------------------------
 # wb97xd/genecp scrf=(solvent=toluene,pcm) nosymm pop=(chelpg) scfcyc=
 300
 ----------------------------------------------------------------------

 ---------------------
 tbu_metriazole_chelpg
 ---------------------
 Symbolic Z-matrix:
 Charge =  0 Multiplicity = 1

                          Input orientation:
 ---------------------------------------------------------------------
 Center     Atomic      Atomic             Coordinates (Angstroms)
 Number     Number       Type             X           Y           Z
 ---------------------------------------------------------------------
      1          6           0        3.170399    1.857584    0.993571
      2          1           0        3.230423    2.429000    1.903952
      3          6           0        3.454412    0.539279    0.694318
      4          7           0        2.723553    2.404564   -0.151210
      5          7           0        2.742871    1.500667   -1.137994
      6          7           0        3.159556    0.384134   -0.640567
      7          5           0        3.917820   -0.634093    1.640188
      8          6           0        2.275176    3.761120   -0.399069
      9          1           0        3.081853    4.466602   -0.197984
     10          1           0        1.988589    3.823633   -1.446691
     11          1           0        1.414866    3.992128    0.229720
     12          6           0        5.147446   -0.377918    2.646620
     13          6           0        5.725024    1.048634    2.591127
     14          6           0        4.786892   -0.658227    4.120116
     15          6           0        6.284917   -1.331513    2.207774
     16          1           0        5.968568    1.358131    1.571624
     17          1           0        5.036351    1.785516    3.013873
     18          1           0        6.644561    1.097508    3.185864
     19          1           0        4.550092   -1.704093    4.307160
     20          1           0        5.636357   -0.392808    4.760778
     21          1           0        3.932555   -0.055431    4.446793
     22          1           0        7.161744   -1.170164    2.845870
     23          1           0        6.008309   -2.383824    2.286144
     24          1           0        6.592351   -1.141110    1.174071
     25          6           0        3.156736   -2.035393    1.439785
     26          6           0        3.777935   -2.676005    0.170447
     27          6           0        3.250677   -3.060507    2.582184
     28          6           0        1.652455   -1.804527    1.175645
     29          1           0        3.703809   -2.015306   -0.695193
     30          1           0        4.829300   -2.937871    0.320406
     31          1           0        3.237365   -3.601798   -0.061611
     32          1           0        2.762497   -2.699703    3.491958
     33          1           0        2.738168   -3.982570    2.283065
     34          1           0        4.277800   -3.332358    2.832964
     35          1           0        1.147138   -2.769037    1.046373
     36          1           0        1.172315   -1.293086    2.017500
     37          1           0        1.481131   -1.212459    0.276164
 ---------------------------------------------------------------------

 SCF Done:  E(RwB97XD) =  -621.478032777     A.U. after   15 cycles

 Alpha  occ. eigenvalues --  -14.53079 -14.49224 -14.45404 -10.33692 -10.33144
 Alpha  occ. eigenvalues --  -10.29317 -10.27827 -10.27223 -10.27133 -10.26890
 Alpha  occ. eigenvalues --  -10.26617 -10.26232 -10.26110 -10.25898  -6.85216
 Alpha  occ. eigenvalues --   -1.21308  -1.02516  -0.91702  -0.90158  -0.89241
 Alpha  occ. eigenvalues --   -0.84163  -0.78347  -0.78035  -0.77055  -0.76888
 Alpha  occ. eigenvalues --   -0.73191  -0.68964  -0.66871  -0.63341  -0.62685
 Alpha  occ. eigenvalues --   -0.59340  -0.57150  -0.54747  -0.53800  -0.53212
 Alpha  occ. eigenvalues --   -0.52213  -0.51721  -0.51373  -0.50801  -0.50633
 Alpha  occ. eigenvalues --   -0.48587  -0.47200  -0.46407  -0.45883  -0.45333
 Alpha  occ. eigenvalues --   -0.44547  -0.43809  -0.43098  -0.41900  -0.41086
 Alpha  occ. eigenvalues --   -0.39965  -0.39569  -0.37556  -0.36927  -0.36030
 Alpha  occ. eigenvalues --   -0.35343  -0.33183
 Alpha virt. eigenvalues --    0.02638   0.03644   0.04562   0.04827   0.05425
 Alpha virt. eigenvalues --    0.06127   0.06420   0.06968   0.07398   0.07527
 Alpha virt. eigenvalues --    0.07567   0.08563   0.08770   0.08958   0.09439

 Mulliken charges:
               1
     1  C   -0.706498
     2  H    0.268116
     3  C   -0.625252
     4  N    0.355710
     5  N    0.195788
     6  N   -0.243463
     7  B    0.469445
     8  C   -0.355379
     9  H    0.200895
    10  H    0.213488
    11  H    0.200918
    12  C    0.006713
    13  C   -0.418390
    14  C   -0.493630
    15  C   -0.573761
    16  H    0.185284
    17  H    0.105202
    18  H    0.163824
    19  H    0.138148
    20  H    0.160273
    21  H    0.186141
    22  H    0.173786
    23  H    0.155874
    24  H    0.200339
    25  C    0.159958
    26  C   -0.681600
    27  C   -0.392987
    28  C   -0.585340
    29  H    0.219276
    30  H    0.153449
    31  H    0.165721
    32  H    0.166087
    33  H    0.164521
    34  H    0.142482
    35  H    0.162403
    36  H    0.174006
    37  H    0.188453
 Sum of Mulliken charges =  -0.00000

 Dipole moment (field-independent basis, Debye):
    X=             -0.2806    Y=              4.1172    Z=              2.9740  Tot=              5.0867
 Quadrupole moment (field-independent basis, Debye-Ang):
   XX=            -97.0958   YY=            -78.8497   ZZ=            -98.0953
   XY=              8.6635   XZ=              9.1707   YZ=              2.8185

 ESP charges:
               1
     1  C   -0.384764
     2  H    0.177646
     3  C    0.173977
     4  N    0.551133
     5  N   -0.454577
     6  N   -0.165609
     7  B    0.109908
     8  C   -0.252906
     9  H    0.108376
    10  H    0.112068
    11  H    0.102791
    12  C    0.431915
    13  C   -0.340648
    14  C   -0.360443
    15  C   -0.290524
    16  H    0.041947
    17  H    0.065473
    18  H    0.071107
    19  H    0.067160
    20  H    0.070870
    21  H    0.061978
    22  H    0.059986
    23  H    0.062995
    24  H    0.053307
    25  C    0.340833
    26  C    0.006135
    27  C   -0.419596
    28  C   -0.394792
    29  H   -0.095625
    30  H   -0.012487
    31  H    0.007113
    32  H    0.101395
    33  H    0.079033
    34  H    0.074766
    35  H    0.089180
    36  H    0.050236
    37  H    0.100642
 Sum of ESP charges =  -0.00000

 Normal termination of Gaussian 16 at Tue Apr  9 16:39:26 2024.
