 Gaussian 16, Revision C.02,
 Gaussian 16:  AS64L-G16RevC.02  7-Dec-2021

 ----------------------------------------------------------------------
 # wb97xd/genecp scrf=(solvent=toluene,pcm) nosymm pop=(chelpg) scfcyc=
 300
 ----------------------------------------------------------------------

 -------------------
 tbu_indenoPy_chelpg
 -------------------
 Symbolic Z-matrix:
 Charge =  0 Multiplicity = 1

                          Input orientation:
 ---------------------------------------------------------------------
 Center     Atomic      Atomic             Coordinates (Angstroms)
 Number     Number       Type             X           Y           Z
 ---------------------------------------------------------------------
      1          6           0        0.709711    0.844928   -0.435863
      2          6           0        1.846097    0.792743    0.373074
      3          6           0        2.270835    1.836103    1.194908
      4          6           0        1.476682    2.986517    1.155338
      5          6           0        0.337450    3.062699    0.350292
      6          6           0       -0.063417    1.995391   -0.451553
      7          1           0        1.743532    3.851317    1.754602
      8          1           0       -0.247791    3.976293    0.350847
      9          1           0       -0.951852    2.072811   -1.069149
     10          6           0        0.548510   -0.458302   -1.193329
     11          1           0        0.560169   -0.302586   -2.276672
     12          1           0       -0.394851   -0.956640   -0.948323
     13          6           0        2.482592   -0.504008    0.186859
     14          6           0        1.741569   -1.259920   -0.729814
     15          6           0        4.027624   -2.122331    0.474515
     16          6           0        2.196182   -2.525924   -1.041299
     17          6           0        3.369257   -2.960638   -0.419060
     18          1           0        4.941301   -2.450987    0.960819
     19          1           0        1.671529   -3.166424   -1.742507
     20          1           0        3.773734   -3.943935   -0.625693
     21          7           0        3.598837   -0.895246    0.788539
     22          5           0        3.597142    1.649775    2.047834
     23          6           0        4.958434    2.152011    1.356571
     24          6           0        3.379847    1.232151    3.584086
     25          6           0        4.802972    2.323409   -0.166072
     26          1           0        4.600571    1.364257   -0.651990
     27          1           0        3.989074    3.006193   -0.423148
     28          1           0        5.728308    2.726211   -0.595345
     29          6           0        6.188260    1.257726    1.589096
     30          1           0        5.991636    0.236029    1.254627
     31          1           0        7.037383    1.646033    1.013116
     32          1           0        6.494738    1.221214    2.633699
     33          6           0        5.229795    3.549181    1.964714
     34          1           0        5.454822    3.494303    3.033267
     35          1           0        6.092927    4.005592    1.465664
     36          1           0        4.380185    4.228374    1.830285
     37          6           0        4.630530    0.794158    4.357611
     38          1           0        5.379841    1.588074    4.414810
     39          1           0        4.357189    0.531058    5.386944
     40          1           0        5.096789   -0.083719    3.902969
     41          6           0        2.800088    2.487782    4.284141
     42          1           0        2.642383    2.265377    5.346115
     43          1           0        3.472929    3.348529    4.226295
     44          1           0        1.834091    2.779080    3.864192
     45          6           0        2.330123    0.110658    3.713130
     46          1           0        1.387355    0.377311    3.228107
     47          1           0        2.688990   -0.819163    3.265367
     48          1           0        2.119684   -0.080611    4.772528
 ---------------------------------------------------------------------

 SCF Done:  E(RwB97XD) =  -857.368097055     A.U. after   15 cycles

 Alpha  occ. eigenvalues --  -14.44011 -10.32728 -10.32655 -10.31230 -10.30611
 Alpha  occ. eigenvalues --  -10.30391 -10.29978 -10.29955 -10.29077 -10.28892
 Alpha  occ. eigenvalues --  -10.28800 -10.28722 -10.27513 -10.26900 -10.26859
 Alpha  occ. eigenvalues --  -10.26788 -10.26611 -10.25838 -10.25593 -10.25463
 Alpha  occ. eigenvalues --  -10.25422  -6.84399  -1.06413  -0.98260  -0.93247
 Alpha  occ. eigenvalues --   -0.90388  -0.90306  -0.88809  -0.86048  -0.82905
 Alpha  occ. eigenvalues --   -0.80296  -0.77811  -0.77274  -0.76886  -0.76216
 Alpha  occ. eigenvalues --   -0.74934  -0.71058  -0.69267  -0.67979  -0.65678
 Alpha  occ. eigenvalues --   -0.62746  -0.61847  -0.59426  -0.58295  -0.56585
 Alpha  occ. eigenvalues --   -0.55354  -0.53823  -0.53467  -0.53194  -0.52514
 Alpha  occ. eigenvalues --   -0.52001  -0.51189  -0.51056  -0.50356  -0.49952
 Alpha  occ. eigenvalues --   -0.49113  -0.48880  -0.48609  -0.46996  -0.46147
 Alpha  occ. eigenvalues --   -0.45722  -0.45240  -0.45016  -0.44340  -0.43750
 Alpha  occ. eigenvalues --   -0.43440  -0.43202  -0.42818  -0.41137  -0.40156
 Alpha  occ. eigenvalues --   -0.39552  -0.39113  -0.37916  -0.36318  -0.35877
 Alpha  occ. eigenvalues --   -0.35084  -0.34938  -0.31750  -0.29808
 Alpha virt. eigenvalues --    0.01139   0.03365   0.03788   0.04350   0.04680
 Alpha virt. eigenvalues --    0.05156   0.05536   0.05706   0.05733   0.06395
 Alpha virt. eigenvalues --    0.06706   0.06958   0.07514   0.07612   0.07639

 Mulliken charges:
               1
     1  C   -0.070985
     2  C    0.348482
     3  C    0.788768
     4  C   -0.225168
     5  C   -0.425972
     6  C   -0.148937
     7  H    0.212744
     8  H    0.235813
     9  H    0.216356
    10  C   -0.550225
    11  H    0.235370
    12  H    0.237895
    13  C   -0.222591
    14  C    0.184380
    15  C    0.239015
    16  C   -0.575466
    17  C   -0.533381
    18  H    0.235223
    19  H    0.236177
    20  H    0.243194
    21  N    0.200681
    22  B   -0.865523
    23  C    0.034699
    24  C   -0.136785
    25  C   -0.550063
    26  H    0.177137
    27  H    0.199970
    28  H    0.168879
    29  C   -0.533231
    30  H    0.143482
    31  H    0.156976
    32  H    0.131712
    33  C   -0.516891
    34  H    0.194570
    35  H    0.179748
    36  H    0.194099
    37  C   -0.418600
    38  H    0.165154
    39  H    0.159068
    40  H    0.188295
    41  C   -0.531474
    42  H    0.176129
    43  H    0.158753
    44  H    0.186440
    45  C   -0.508198
    46  H    0.232350
    47  H    0.173458
    48  H    0.178473
 Sum of Mulliken charges =  -0.00000

 Dipole moment (field-independent basis, Debye):
    X=             -1.7269    Y=             -1.8215    Z=             -2.1040  Tot=              3.2752
 Quadrupole moment (field-independent basis, Debye-Ang):
   XX=           -141.4799   YY=           -125.4032   ZZ=           -137.3446
   XY=             -7.9316   XZ=             -0.9700   YZ=              4.7389

 ESP charges:
               1
     1  C    0.058952
     2  C   -0.239521
     3  C    0.317643
     4  C   -0.250427
     5  C   -0.061767
     6  C   -0.218319
     7  H    0.122138
     8  H    0.097445
     9  H    0.122039
    10  C    0.068296
    11  H    0.036538
    12  H    0.033736
    13  C    0.401484
    14  C   -0.162246
    15  C    0.160920
    16  C   -0.000302
    17  C   -0.268810
    18  H    0.069028
    19  H    0.109930
    20  H    0.132501
    21  N   -0.348647
    22  B    0.009775
    23  C    0.345226
    24  C    0.301737
    25  C   -0.102300
    26  H   -0.041830
    27  H   -0.058299
    28  H    0.038017
    29  C   -0.373139
    30  H    0.061153
    31  H    0.064214
    32  H    0.075452
    33  C   -0.192390
    34  H    0.041326
    35  H    0.028266
    36  H    0.025199
    37  C   -0.448338
    38  H    0.098541
    39  H    0.085216
    40  H    0.093370
    41  C   -0.105359
    42  H    0.019852
    43  H    0.012004
    44  H   -0.021507
    45  C   -0.049166
    46  H   -0.073996
    47  H   -0.037854
    48  H    0.024219
 Sum of ESP charges =  -0.00000

 Normal termination of Gaussian 16 at Wed Apr 10 16:26:52 2024.
