 Gaussian 16, Revision C.02,
 Gaussian 16:  AS64L-G16RevC.02  7-Dec-2021

 ----------------------------------------------------------------------
 # wb97xd/genecp scrf=(solvent=toluene,pcm) nosymm pop=(chelpg) scfcyc=
 300
 ----------------------------------------------------------------------

 -----------------------
 tbu_dibenzofuran_chelpg
 -----------------------
 Symbolic Z-matrix:
 Charge =  0 Multiplicity = 1

                          Input orientation:
 ---------------------------------------------------------------------
 Center     Atomic      Atomic             Coordinates (Angstroms)
 Number     Number       Type             X           Y           Z
 ---------------------------------------------------------------------
      1          6           0        2.035262    2.060403    0.252048
      2          6           0        1.740726    2.395280   -1.069675
      3          8           0        1.786598    3.112943    1.097076
      4          6           0        1.271270    3.768167   -1.029207
      5          6           0        1.329268    4.137789    0.313395
      6          6           0        0.788145    4.664500   -1.984037
      7          6           0        0.931907    5.393493    0.794335
      8          6           0        0.379399    5.908458   -1.539517
      9          1           0        0.726960    4.390602   -3.030353
     10          6           0        0.454473    6.267690   -0.187272
     11          1           0       -0.004526    6.634290   -2.247496
     12          1           0        0.130386    7.259788    0.098741
     13          6           0        1.917619    1.437565   -2.065998
     14          1           0        1.693381    1.660503   -3.102767
     15          6           0        2.388259    0.188448   -1.688431
     16          1           0        2.537268   -0.578455   -2.440186
     17          6           0        2.681280   -0.103433   -0.350443
     18          6           0        2.509342    0.827922    0.677753
     19          1           0        3.056731   -1.093184   -0.109776
     20          5           0        2.773976    0.505501    2.207025
     21          7           0        0.967759    5.695508    2.161681
     22          6           0        2.247717    5.502523    2.834714
     23          1           0        2.969967    6.289535    2.566575
     24          1           0        2.089260    5.533380    3.915014
     25          1           0        2.673568    4.534773    2.582483
     26          6           0        0.308395    6.917992    2.575285
     27          1           0        0.259887    6.933031    3.665720
     28          1           0        0.837739    7.827331    2.246168
     29          1           0       -0.712558    6.947565    2.190600
     30          6           0        1.496380    0.057379    3.053591
     31          6           0        4.286059    0.639366    2.709086
     32          6           0        0.171829    0.587216    2.473271
     33          1           0       -0.673845    0.153601    3.019745
     34          1           0        0.105438    1.675106    2.561552
     35          1           0        0.053780    0.329808    1.417994
     36          6           0        1.511274   -1.484364    2.873006
     37          1           0        0.654646   -1.916487    3.403223
     38          1           0        1.422329   -1.771368    1.820306
     39          1           0        2.417036   -1.943162    3.280726
     40          6           0        1.511566    0.384443    4.555830
     41          1           0        2.268384   -0.180295    5.098950
     42          1           0        1.682867    1.450265    4.736968
     43          1           0        0.540931    0.129822    4.997065
     44          6           0        4.436151    2.166724    2.940388
     45          1           0        5.448491    2.376466    3.304955
     46          1           0        4.287444    2.737284    2.019850
     47          1           0        3.730832    2.538621    3.690902
     48          6           0        4.673953   -0.079583    4.011124
     49          1           0        4.177653    0.346759    4.882737
     50          1           0        4.446428   -1.149182    3.977560
     51          1           0        5.753178    0.019204    4.176149
     52          6           0        5.296576    0.219628    1.624594
     53          1           0        5.232356   -0.852646    1.410198
     54          1           0        5.142144    0.756385    0.686603
     55          1           0        6.317303    0.424838    1.967514
 ---------------------------------------------------------------------

 SCF Done:  E(RwB97XD) =  -1011.19180096     A.U. after   16 cycles

 Alpha  occ. eigenvalues --  -19.31114 -14.44799 -10.34622 -10.34602 -10.33359
 Alpha  occ. eigenvalues --  -10.30706 -10.30331 -10.29914 -10.29822 -10.29380
 Alpha  occ. eigenvalues --  -10.29265 -10.28842 -10.28791 -10.28769 -10.28722
 Alpha  occ. eigenvalues --  -10.27935 -10.27788 -10.27602 -10.27533 -10.27438
 Alpha  occ. eigenvalues --  -10.26558 -10.26474 -10.26456 -10.25859  -6.85255
 Alpha  occ. eigenvalues --   -1.21888  -1.05161  -0.96938  -0.95778  -0.91234
 Alpha  occ. eigenvalues --   -0.89620  -0.88709  -0.86534  -0.84052  -0.83212
 Alpha  occ. eigenvalues --   -0.81187  -0.78346  -0.78172  -0.77763  -0.76994
 Alpha  occ. eigenvalues --   -0.76269  -0.73260  -0.71786  -0.69401  -0.67894
 Alpha  occ. eigenvalues --   -0.65242  -0.63632  -0.62475  -0.61191  -0.59719
 Alpha  occ. eigenvalues --   -0.57647  -0.56937  -0.56820  -0.55418  -0.54644
 Alpha  occ. eigenvalues --   -0.54479  -0.53791  -0.53250  -0.52387  -0.52158
 Alpha  occ. eigenvalues --   -0.51858  -0.51516  -0.50901  -0.49939  -0.49330
 Alpha  occ. eigenvalues --   -0.48498  -0.47533  -0.47357  -0.46952  -0.46312
 Alpha  occ. eigenvalues --   -0.46086  -0.45994  -0.45434  -0.45085  -0.44881
 Alpha  occ. eigenvalues --   -0.44573  -0.44507  -0.43842  -0.43536  -0.42544
 Alpha  occ. eigenvalues --   -0.41650  -0.41114  -0.40129  -0.39972  -0.38099
 Alpha  occ. eigenvalues --   -0.36533  -0.36235  -0.34442  -0.31433  -0.29622
 Alpha  occ. eigenvalues --   -0.27628
 Alpha virt. eigenvalues --    0.02218   0.03761   0.04059   0.04529   0.04632
 Alpha virt. eigenvalues --    0.05085   0.05574   0.05816   0.06263   0.06387
 Alpha virt. eigenvalues --    0.06530   0.07012   0.07152   0.07219   0.07334

 Mulliken charges:
               1
     1  C   -0.207523
     2  C    0.350807
     3  O    0.116697
     4  C    0.677001
     5  C    0.019717
     6  C   -0.704364
     7  C   -0.457828
     8  C   -0.394200
     9  H    0.174104
    10  C   -0.092547
    11  H    0.235747
    12  H    0.183238
    13  C   -0.125395
    14  H    0.216223
    15  C   -0.500493
    16  H    0.237224
    17  C   -0.400784
    18  C    0.848081
    19  H    0.223697
    20  B   -0.949502
    21  N    0.224867
    22  C   -0.451778
    23  H    0.183155
    24  H    0.171872
    25  H    0.101896
    26  C   -0.346472
    27  H    0.177524
    28  H    0.164709
    29  H    0.158345
    30  C   -0.127031
    31  C   -0.086090
    32  C   -0.395505
    33  H    0.174605
    34  H    0.228873
    35  H    0.201978
    36  C   -0.507976
    37  H    0.193005
    38  H    0.207202
    39  H    0.165839
    40  C   -0.484480
    41  H    0.149934
    42  H    0.187797
    43  H    0.169086
    44  C   -0.607887
    45  H    0.202237
    46  H    0.240907
    47  H    0.220496
    48  C   -0.498621
    49  H    0.152589
    50  H    0.155887
    51  H    0.172330
    52  C   -0.506728
    53  H    0.189564
    54  H    0.210819
    55  H    0.157149
 Sum of Mulliken charges =  -0.00000

 Dipole moment (field-independent basis, Debye):
    X=              0.3928    Y=              0.7232    Z=              0.7810  Tot=              1.1345
 Quadrupole moment (field-independent basis, Debye-Ang):
   XX=           -156.1247   YY=           -135.4936   ZZ=           -144.2953
   XY=             -2.6681   XZ=              3.9678   YZ=              7.0557

 ESP charges:
               1
     1  C    0.168792
     2  C    0.004906
     3  O   -0.169831
     4  C    0.064510
     5  C    0.004213
     6  C   -0.220500
     7  C    0.322165
     8  C   -0.145601
     9  H    0.138331
    10  C   -0.243810
    11  H    0.122698
    12  H    0.143867
    13  C   -0.184854
    14  H    0.138503
    15  C   -0.157749
    16  H    0.106678
    17  C   -0.086927
    18  C   -0.033534
    19  H    0.098953
    20  B    0.244701
    21  N   -0.382968
    22  C    0.061082
    23  H    0.013068
    24  H    0.064874
    25  H    0.004637
    26  C   -0.073479
    27  H    0.083831
    28  H    0.050985
    29  H    0.061046
    30  C    0.221199
    31  C    0.272018
    32  C   -0.029020
    33  H    0.019829
    34  H   -0.042262
    35  H   -0.055978
    36  C   -0.162923
    37  H    0.048212
    38  H    0.001778
    39  H    0.031886
    40  C   -0.422775
    41  H    0.089857
    42  H    0.097923
    43  H    0.088973
    44  C   -0.117794
    45  H    0.033893
    46  H    0.005745
    47  H    0.009955
    48  C   -0.444933
    49  H    0.098224
    50  H    0.097559
    51  H    0.087934
    52  C   -0.137038
    53  H    0.012255
    54  H   -0.047508
    55  H    0.044404
 Sum of ESP charges =  -0.00000

 Normal termination of Gaussian 16 at Wed Apr 10 17:00:48 2024.
