 Gaussian 16, Revision C.02,
 Gaussian 16:  AS64L-G16RevC.02  7-Dec-2021

 ----------------------------------------------------------------------
 # wb97xd/genecp scrf=(solvent=toluene,pcm) nosymm pop=(chelpg) scfcyc=
 300
 ----------------------------------------------------------------------

 --------------------------
 tbu_benzopiperidine_chelpg
 --------------------------
 Symbolic Z-matrix:
 Charge =  0 Multiplicity = 1

                          Input orientation:
 ---------------------------------------------------------------------
 Center     Atomic      Atomic             Coordinates (Angstroms)
 Number     Number       Type             X           Y           Z
 ---------------------------------------------------------------------
      1          6           0       -0.589229    0.939657    0.482095
      2          6           0        0.793673    0.901384    0.353320
      3          6           0        1.540320    2.066919    0.145537
      4          6           0        0.853993    3.279318    0.046060
      5          6           0       -0.535963    3.319875    0.157964
      6          6           0       -1.257845    2.154614    0.382191
      7          1           0       -1.144235    0.024070    0.655465
      8          1           0        1.301006   -0.057195    0.421649
      9          1           0       -1.058952    4.266241    0.070485
     10          1           0       -2.337758    2.194479    0.473410
     11          5           0        3.117382    2.013148    0.017841
     12          6           0        1.555625    4.942363   -1.569097
     13          6           0        1.319335    5.558794    0.748219
     14          6           0        2.552907    6.070530   -1.812596
     15          6           0        2.332264    6.688032    0.605074
     16          6           0        2.338227    7.218620   -0.827774
     17          1           0        2.456740    6.419948   -2.844818
     18          1           0        3.568793    5.678707   -1.692644
     19          1           0        2.089159    7.485618    1.313195
     20          1           0        3.327445    6.308978    0.864530
     21          1           0        3.110391    7.982411   -0.955239
     22          1           0        1.374503    7.700578   -1.036298
     23          7           0        1.630775    4.471337   -0.183171
     24          1           0        1.324498    5.155502    1.762252
     25          1           0        0.309755    5.968016    0.564009
     26          1           0        0.534898    5.296649   -1.804991
     27          1           0        1.762233    4.100939   -2.233097
     28          6           0        3.728321    1.551127   -1.403808
     29          6           0        3.965654    2.207569    1.367376
     30          6           0        2.632758    1.194274   -2.426237
     31          1           0        2.035460    0.339316   -2.097639
     32          1           0        1.939525    2.021615   -2.596592
     33          1           0        3.087653    0.933339   -3.389287
     34          6           0        4.567717    2.700685   -2.001319
     35          1           0        4.930142    2.409012   -2.994527
     36          1           0        3.975765    3.610411   -2.123662
     37          1           0        5.436395    2.946655   -1.390136
     38          6           0        4.626711    0.303893   -1.267229
     39          1           0        5.004786    0.017545   -2.256066
     40          1           0        5.490643    0.468864   -0.621809
     41          1           0        4.069808   -0.552110   -0.872476
     42          6           0        5.422671    2.669583    1.208931
     43          1           0        5.905203    2.714021    2.192950
     44          1           0        6.020389    2.002409    0.585698
     45          1           0        5.472528    3.672657    0.774927
     46          6           0        3.295892    3.170831    2.361379
     47          1           0        2.251887    2.907754    2.549076
     48          1           0        3.827394    3.146770    3.320508
     49          1           0        3.326229    4.195906    1.987320
     50          6           0        3.955496    0.799300    2.020580
     51          1           0        4.479388    0.849602    2.982302
     52          1           0        2.937017    0.454214    2.223079
     53          1           0        4.458701    0.045564    1.411038
 ---------------------------------------------------------------------

 SCF Done:  E(RwB97XD) =  -822.882577786     A.U. after   16 cycles

 Alpha  occ. eigenvalues --  -14.43007 -10.31365 -10.30566 -10.30330 -10.28564
 Alpha  occ. eigenvalues --  -10.28548 -10.28454 -10.28437 -10.27717 -10.27689
 Alpha  occ. eigenvalues --  -10.27645 -10.27352 -10.27227 -10.26966 -10.26798
 Alpha  occ. eigenvalues --  -10.26748 -10.26586 -10.26305 -10.25963 -10.25745
 Alpha  occ. eigenvalues --   -6.84672  -1.04111  -0.95258  -0.90782  -0.89877
 Alpha  occ. eigenvalues --   -0.89217  -0.85521  -0.84522  -0.83117  -0.78286
 Alpha  occ. eigenvalues --   -0.77634  -0.77307  -0.76758  -0.74171  -0.72202
 Alpha  occ. eigenvalues --   -0.70390  -0.68511  -0.66010  -0.64601  -0.63144
 Alpha  occ. eigenvalues --   -0.61727  -0.57724  -0.56847  -0.55518  -0.55051
 Alpha  occ. eigenvalues --   -0.54343  -0.53570  -0.52729  -0.52512  -0.51640
 Alpha  occ. eigenvalues --   -0.51381  -0.50893  -0.50534  -0.50055  -0.49360
 Alpha  occ. eigenvalues --   -0.48681  -0.47357  -0.47086  -0.46273  -0.45805
 Alpha  occ. eigenvalues --   -0.45446  -0.44605  -0.44234  -0.44020  -0.43761
 Alpha  occ. eigenvalues --   -0.43430  -0.42919  -0.41633  -0.41324  -0.40391
 Alpha  occ. eigenvalues --   -0.39973  -0.39906  -0.39290  -0.38984  -0.35825
 Alpha  occ. eigenvalues --   -0.35721  -0.32755  -0.31537  -0.30165
 Alpha virt. eigenvalues --    0.03803   0.04297   0.04549   0.04714   0.04881
 Alpha virt. eigenvalues --    0.05663   0.05892   0.05931   0.06224   0.06319
 Alpha virt. eigenvalues --    0.06763   0.07114   0.07631   0.07799   0.08160

 Mulliken charges:
               1
     1  C   -0.598212
     2  C   -0.260130
     3  C    0.551455
     4  C   -0.410231
     5  C    0.104226
     6  C   -0.564589
     7  H    0.223358
     8  H    0.233449
     9  H    0.194476
    10  H    0.228677
    11  B   -0.956019
    12  C    0.010337
    13  C    0.059781
    14  C   -0.157046
    15  C   -0.331278
    16  C   -0.671022
    17  H    0.219735
    18  H    0.124120
    19  H    0.216900
    20  H    0.125873
    21  H    0.217506
    22  H    0.143629
    23  N    0.511358
    24  H    0.182800
    25  H    0.152678
    26  H    0.211377
    27  H    0.109703
    28  C   -0.363190
    29  C   -0.081667
    30  C   -0.251444
    31  H    0.201431
    32  H    0.206817
    33  H    0.184176
    34  C   -0.346983
    35  H    0.179598
    36  H    0.064716
    37  H    0.169612
    38  C   -0.434729
    39  H    0.173070
    40  H    0.172960
    41  H    0.194508
    42  C   -0.520221
    43  H    0.168985
    44  H    0.149710
    45  H    0.175671
    46  C   -0.442548
    47  H    0.225384
    48  H    0.183957
    49  H    0.103418
    50  C   -0.536803
    51  H    0.178576
    52  H    0.206929
    53  H    0.165155
 Sum of Mulliken charges =  -0.00000

 Dipole moment (field-independent basis, Debye):
    X=             -0.3427    Y=              1.0121    Z=             -0.2368  Tot=              1.0945
 Quadrupole moment (field-independent basis, Debye-Ang):
   XX=           -133.2180   YY=           -120.2942   ZZ=           -136.6507
   XY=             -0.1575   XZ=             -1.2902   YZ=             -2.6448

 ESP charges:
               1
     1  C   -0.191015
     2  C   -0.072166
     3  C   -0.094823
     4  C    0.421457
     5  C   -0.329140
     6  C   -0.058074
     7  H    0.113239
     8  H    0.102942
     9  H    0.162055
    10  H    0.099301
    11  B    0.179678
    12  C    0.043713
    13  C    0.045941
    14  C    0.064614
    15  C    0.009745
    16  C   -0.032038
    17  H   -0.005991
    18  H    0.004287
    19  H    0.006742
    20  H    0.027653
    21  H    0.005990
    22  H    0.018699
    23  N   -0.521994
    24  H    0.035001
    25  H    0.032994
    26  H    0.023183
    27  H    0.036821
    28  C    0.447340
    29  C    0.230879
    30  C   -0.211464
    31  H   -0.009783
    32  H   -0.013783
    33  H    0.055941
    34  C   -0.263964
    35  H    0.041565
    36  H    0.038282
    37  H    0.043156
    38  C   -0.377177
    39  H    0.062348
    40  H    0.077060
    41  H    0.079999
    42  C   -0.542026
    43  H    0.117099
    44  H    0.122161
    45  H    0.131355
    46  C   -0.086415
    47  H   -0.022982
    48  H    0.020769
    49  H    0.007743
    50  C   -0.114010
    51  H    0.040361
    52  H   -0.020682
    53  H    0.017411
 Sum of ESP charges =   0.00000

 Normal termination of Gaussian 16 at Wed Apr 10 16:07:43 2024.
