 Gaussian 16, Revision C.02,
 Gaussian 16:  AS64L-G16RevC.02  7-Dec-2021

 ----------------------------------------------------------------------
 # wb97xd/genecp scrf=(solvent=toluene,pcm) nosymm pop=(chelpg) scfcyc=
 300
 ----------------------------------------------------------------------

 -----------------------
 tbu_nmeimidazole_chelpg
 -----------------------
 Symbolic Z-matrix:
 Charge =  0 Multiplicity = 1

                          Input orientation:
 ---------------------------------------------------------------------
 Center     Atomic      Atomic             Coordinates (Angstroms)
 Number     Number       Type             X           Y           Z
 ---------------------------------------------------------------------
      1          6           0        3.086473    1.246386   -0.000361
      2          1           0        3.595083    2.174530    0.199425
      3          6           0        3.192079   -0.004142    0.573095
      4          7           0        2.117114    1.178090   -0.959672
      5          7           0        2.273064   -0.838764   -0.064012
      6          5           0        4.053602   -0.422956    1.818792
      7          6           0        1.653677    2.262892   -1.803436
      8          1           0        0.913719    1.873717   -2.502041
      9          1           0        1.191315    3.045761   -1.199927
     10          1           0        2.485023    2.684625   -2.370257
     11          6           0        1.675757   -0.108681   -0.964852
     12          1           0        0.917812   -0.446017   -1.658142
     13          6           0        5.583065    0.080381    1.936652
     14          6           0        3.345159   -1.435602    2.857000
     15          6           0        5.910202    0.780564    3.271417
     16          1           0        6.939526    1.158561    3.244262
     17          1           0        5.252805    1.639455    3.444539
     18          1           0        5.829616    0.118760    4.131357
     19          6           0        6.044358    1.034113    0.819018
     20          1           0        7.130006    1.174947    0.882243
     21          1           0        5.812527    0.651551   -0.177604
     22          1           0        5.592790    2.025373    0.917491
     23          6           0        6.449425   -1.196703    1.803889
     24          1           0        6.266934   -1.916707    2.603019
     25          1           0        6.272893   -1.703459    0.848979
     26          1           0        7.510852   -0.923250    1.839118
     27          6           0        3.362348   -2.832408    2.184970
     28          1           0        2.884935   -2.810480    1.204338
     29          1           0        4.381667   -3.213438    2.069660
     30          1           0        2.815685   -3.542820    2.818053
     31          6           0        3.969968   -1.583163    4.254877
     32          1           0        3.917834   -0.651172    4.824641
     33          1           0        3.412298   -2.339673    4.820423
     34          1           0        5.012087   -1.908317    4.229235
     35          6           0        1.872868   -1.024167    3.081290
     36          1           0        1.398756   -1.715016    3.789456
     37          1           0        1.801242   -0.017242    3.508149
     38          1           0        1.300545   -1.042652    2.153953
 ---------------------------------------------------------------------

 SCF Done:  E(RwB97XD) =  -605.467937820     A.U. after   15 cycles

 Alpha  occ. eigenvalues --  -14.49771 -14.41186 -10.33699 -10.33484 -10.31341
 Alpha  occ. eigenvalues --  -10.27980 -10.27201 -10.26691 -10.26500 -10.26292
 Alpha  occ. eigenvalues --  -10.26066 -10.25701 -10.25435 -10.25277  -6.83964
 Alpha  occ. eigenvalues --   -1.12963  -0.98999  -0.90353  -0.88600  -0.85508
 Alpha  occ. eigenvalues --   -0.81749  -0.77831  -0.77389  -0.76436  -0.76272
 Alpha  occ. eigenvalues --   -0.70151  -0.67170  -0.65690  -0.62814  -0.62157
 Alpha  occ. eigenvalues --   -0.57154  -0.56327  -0.54200  -0.53427  -0.52120
 Alpha  occ. eigenvalues --   -0.51674  -0.51399  -0.50435  -0.50158  -0.49796
 Alpha  occ. eigenvalues --   -0.48819  -0.47258  -0.46592  -0.45580  -0.45230
 Alpha  occ. eigenvalues --   -0.44740  -0.43890  -0.43225  -0.41285  -0.40541
 Alpha  occ. eigenvalues --   -0.39567  -0.39016  -0.37093  -0.35676  -0.34471
 Alpha  occ. eigenvalues --   -0.34063  -0.30844
 Alpha virt. eigenvalues --    0.03430   0.03770   0.04608   0.05105   0.05394
 Alpha virt. eigenvalues --    0.06330   0.06473   0.06826   0.07303   0.07563
 Alpha virt. eigenvalues --    0.08230   0.08421   0.08761   0.09359   0.09563

 Mulliken charges:
               1
     1  C   -0.489840
     2  H    0.212788
     3  C   -0.778363
     4  N    0.159451
     5  N   -0.054892
     6  B    0.465757
     7  C   -0.374552
     8  H    0.170028
     9  H    0.205651
    10  H    0.200349
    11  C    0.134436
    12  H    0.244179
    13  C    0.022346
    14  C    0.229585
    15  C   -0.511417
    16  H    0.154769
    17  H    0.189250
    18  H    0.135663
    19  C   -0.446426
    20  H    0.151347
    21  H    0.185374
    22  H    0.118361
    23  C   -0.588256
    24  H    0.153208
    25  H    0.200941
    26  H    0.170402
    27  C   -0.685851
    28  H    0.205816
    29  H    0.148860
    30  H    0.158174
    31  C   -0.403320
    32  H    0.161834
    33  H    0.160990
    34  H    0.141103
    35  C   -0.647907
    36  H    0.153842
    37  H    0.165765
    38  H    0.180558
 Sum of Mulliken charges =  -0.00000

 Dipole moment (field-independent basis, Debye):
    X=             -1.0904    Y=              4.2658    Z=             -3.0015  Tot=              5.3287
 Quadrupole moment (field-independent basis, Debye-Ang):
   XX=           -101.5273   YY=            -93.0820   ZZ=            -95.1729
   XY=              8.7245   XZ=             -3.9065   YZ=             -2.7510

 ESP charges:
               1
     1  C   -0.330367
     2  H    0.188892
     3  C    0.148894
     4  N    0.198723
     5  N   -0.488974
     6  B    0.126375
     7  C   -0.310875
     8  H    0.122387
     9  H    0.128234
    10  H    0.135007
    11  C    0.076111
    12  H    0.117206
    13  C    0.342615
    14  C    0.429121
    15  C   -0.347291
    16  H    0.074733
    17  H    0.052404
    18  H    0.065348
    19  C   -0.307096
    20  H    0.067011
    21  H    0.034004
    22  H    0.052927
    23  C   -0.225367
    24  H    0.044845
    25  H    0.041849
    26  H    0.042861
    27  C    0.044605
    28  H   -0.076058
    29  H   -0.035812
    30  H   -0.024619
    31  C   -0.501810
    32  H    0.114414
    33  H    0.089899
    34  H    0.097441
    35  C   -0.406185
    36  H    0.090468
    37  H    0.046049
    38  H    0.082029
 Sum of ESP charges =  -0.00000

 Normal termination of Gaussian 16 at Wed Apr 10 15:55:50 2024.
