 Gaussian 16, Revision C.02,
 Gaussian 16:  AS64L-G16RevC.02  7-Dec-2021

 ----------------------------------------------------------------------
 # wb97xd/genecp scrf=(solvent=toluene,pcm) nosymm pop=(chelpg) scfcyc=
 300
 ----------------------------------------------------------------------

 --------------------
 tbu_quinoline_chelpg
 --------------------
 Symbolic Z-matrix:
 Charge =  0 Multiplicity = 1

                          Input orientation:
 ---------------------------------------------------------------------
 Center     Atomic      Atomic             Coordinates (Angstroms)
 Number     Number       Type             X           Y           Z
 ---------------------------------------------------------------------
      1          6           0       -3.836186   -0.021120    1.142771
      2          6           0       -2.673710   -0.074794    0.411747
      3          6           0       -2.198384    1.130698   -0.171235
      4          6           0       -2.900837    2.348679   -0.018350
      5          6           0       -4.099021    2.353535    0.738711
      6          6           0       -4.548732    1.191959    1.306029
      7          1           0       -4.226047   -0.916147    1.617654
      8          6           0       -2.351821    3.498100   -0.635106
      9          1           0       -4.645258    3.282829    0.862502
     10          1           0       -5.462778    1.194517    1.889840
     11          6           0       -1.182917    3.388691   -1.336910
     12          6           0       -0.555085    2.124491   -1.426692
     13          1           0       -2.862276    4.451612   -0.543022
     14          1           0       -0.732177    4.246451   -1.820968
     15          1           0        0.375784    2.023431   -1.978922
     16          7           0       -1.032230    1.036682   -0.875140
     17          5           0       -1.744245   -1.329530    0.141661
     18          6           0       -0.555195   -1.601809    1.188258
     19          6           0       -2.195767   -2.285822   -1.063913
     20          6           0       -0.453452   -0.492099    2.250742
     21          1           0       -0.220643    0.474799    1.795535
     22          1           0       -1.383848   -0.379173    2.814285
     23          1           0        0.345352   -0.726060    2.964732
     24          6           0        0.815919   -1.694799    0.490178
     25          1           0        1.605773   -1.782085    1.246354
     26          1           0        0.895472   -2.559330   -0.168574
     27          1           0        1.012310   -0.795955   -0.100942
     28          6           0       -0.844458   -2.927087    1.926995
     29          1           0       -1.808497   -2.899476    2.447105
     30          1           0       -0.849467   -3.788035    1.254841
     31          1           0       -0.070904   -3.102012    2.684235
     32          6           0       -1.133966   -3.239944   -1.628908
     33          1           0       -0.721365   -3.908442   -0.869949
     34          1           0       -1.579415   -3.869157   -2.409169
     35          1           0       -0.305472   -2.690145   -2.083512
     36          6           0       -3.351940   -3.135561   -0.475696
     37          1           0       -4.181591   -2.512861   -0.129148
     38          1           0       -3.745444   -3.795527   -1.257737
     39          1           0       -3.025554   -3.767670    0.354786
     40          6           0       -2.768044   -1.475014   -2.242776
     41          1           0       -3.600403   -0.837912   -1.932662
     42          1           0       -2.004143   -0.832988   -2.689352
     43          1           0       -3.137292   -2.155392   -3.019640
 ---------------------------------------------------------------------

 SCF Done:  E(RwB97XD) =  -741.843759328     A.U. after   16 cycles

 Alpha  occ. eigenvalues --  -14.43890 -10.33062 -10.32605 -10.31271 -10.30740
 Alpha  occ. eigenvalues --  -10.30134 -10.29534 -10.29461 -10.29271 -10.27495
 Alpha  occ. eigenvalues --  -10.27175 -10.26996 -10.26988 -10.26827 -10.26113
 Alpha  occ. eigenvalues --  -10.25862 -10.25810 -10.25605  -6.84664  -1.05971
 Alpha  occ. eigenvalues --   -0.95809  -0.91975  -0.90333  -0.89008  -0.85849
 Alpha  occ. eigenvalues --   -0.84472  -0.78061  -0.77472  -0.77096  -0.76490
 Alpha  occ. eigenvalues --   -0.74516  -0.73240  -0.70767  -0.66135  -0.62969
 Alpha  occ. eigenvalues --   -0.62409  -0.61012  -0.60337  -0.56792  -0.54867
 Alpha  occ. eigenvalues --   -0.54257  -0.53070  -0.52088  -0.51638  -0.51330
 Alpha  occ. eigenvalues --   -0.51039  -0.50614  -0.50279  -0.49866  -0.48992
 Alpha  occ. eigenvalues --   -0.47063  -0.46104  -0.45775  -0.45208  -0.44398
 Alpha  occ. eigenvalues --   -0.44117  -0.43705  -0.43454  -0.43402  -0.41456
 Alpha  occ. eigenvalues --   -0.40546  -0.39713  -0.39458  -0.39235  -0.36682
 Alpha  occ. eigenvalues --   -0.35039  -0.34549  -0.33122  -0.30253
 Alpha virt. eigenvalues --    0.00135   0.03707   0.03776   0.04330   0.04627
 Alpha virt. eigenvalues --    0.05181   0.05481   0.06021   0.06458   0.06526
 Alpha virt. eigenvalues --    0.07118   0.07340   0.07573   0.07819   0.08046

 Mulliken charges:
               1
     1  C   -0.269631
     2  C    0.542185
     3  C   -0.823774
     4  C    0.488324
     5  C   -0.325368
     6  C   -0.346305
     7  H    0.225599
     8  C    0.167593
     9  H    0.203809
    10  H    0.239282
    11  C   -0.809584
    12  C    0.268912
    13  H    0.252044
    14  H    0.238278
    15  H    0.250131
    16  N    0.229816
    17  B   -0.698103
    18  C   -0.098368
    19  C   -0.099435
    20  C   -0.450785
    21  H    0.203354
    22  H    0.187185
    23  H    0.174142
    24  C   -0.532654
    25  H    0.161126
    26  H    0.133040
    27  H    0.182432
    28  C   -0.443300
    29  H    0.200921
    30  H    0.177833
    31  H    0.179771
    32  C   -0.453376
    33  H    0.152386
    34  H    0.161046
    35  H    0.187107
    36  C   -0.554000
    37  H    0.184576
    38  H    0.177040
    39  H    0.169197
    40  C   -0.420156
    41  H    0.225632
    42  H    0.185041
    43  H    0.177036
 Sum of Mulliken charges =  -0.00000

 Dipole moment (field-independent basis, Debye):
    X=             -0.9443    Y=              2.1406    Z=             -0.0397  Tot=              2.3400
 Quadrupole moment (field-independent basis, Debye-Ang):
   XX=           -111.4097   YY=           -105.8759   ZZ=           -119.4399
   XY=             -3.5903   XZ=             -5.8308   YZ=             -4.6917

 ESP charges:
               1
     1  C   -0.062683
     2  C   -0.102135
     3  C    0.396265
     4  C   -0.010851
     5  C   -0.213079
     6  C   -0.132114
     7  H    0.096029
     8  C   -0.041413
     9  H    0.134128
    10  H    0.113377
    11  C   -0.276844
    12  C    0.291879
    13  H    0.119257
    14  H    0.132937
    15  H    0.042737
    16  N   -0.486077
    17  B    0.159225
    18  C    0.391292
    19  C    0.271818
    20  C   -0.153352
    21  H   -0.017896
    22  H   -0.042335
    23  H    0.045049
    24  C   -0.372057
    25  H    0.070744
    26  H    0.069340
    27  H    0.059328
    28  C   -0.252629
    29  H    0.048894
    30  H    0.049075
    31  H    0.035919
    32  C   -0.481699
    33  H    0.108127
    34  H    0.099226
    35  H    0.102415
    36  C   -0.071548
    37  H   -0.015281
    38  H    0.013482
    39  H   -0.001448
    40  C   -0.060025
    41  H   -0.060916
    42  H   -0.019914
    43  H    0.023752
 Sum of ESP charges =  -0.00000

 Normal termination of Gaussian 16 at Wed Apr 10 16:15:18 2024.
