 Gaussian 16, Revision C.02,
 Gaussian 16:  AS64L-G16RevC.02  7-Dec-2021

 ----------------------------------------------------------------------
 # wb97xd/genecp scrf=(solvent=toluene,pcm) nosymm pop=(chelpg) scfcyc=
 300
 ----------------------------------------------------------------------

 -------------------------
 tbu_naphtoxanthene_chelpg
 -------------------------
 Symbolic Z-matrix:
 Charge =  0 Multiplicity = 1

                          Input orientation:
 ---------------------------------------------------------------------
 Center     Atomic      Atomic             Coordinates (Angstroms)
 Number     Number       Type             X           Y           Z
 ---------------------------------------------------------------------
      1          6           0       -1.952802    1.402756    0.942009
      2          6           0       -0.606536    1.445984    1.369416
      3          6           0        0.211012    2.528324    1.129849
      4          6           0       -0.281415    3.650654    0.434285
      5          6           0       -1.617179    3.624175   -0.014178
      6          6           0       -2.413165    2.498584    0.248312
      7          1           0       -0.195064    0.592835    1.898958
      8          1           0        1.239952    2.522474    1.473062
      9          6           0       -2.158908    4.720146   -0.740779
     10          8           0       -3.718978    2.445548   -0.188150
     11          6           0       -3.507689    4.626964   -1.195642
     12          6           0       -4.258776    3.473028   -0.914284
     13          6           0       -4.063923    5.674767   -1.959172
     14          6           0       -5.562900    3.328208   -1.376243
     15          6           0       -5.380969    5.526841   -2.427757
     16          6           0       -6.099219    4.389384   -2.137876
     17          1           0       -5.832118    6.317147   -3.017699
     18          1           0       -7.114045    4.303230   -2.505922
     19          5           0       -2.939923    0.191699    1.205112
     20          7           0       -6.280103    2.143148   -1.110763
     21          6           0       -6.610630    1.914678    0.288981
     22          1           0       -7.390209    2.605502    0.647274
     23          1           0       -6.973427    0.890548    0.406467
     24          1           0       -5.724438    2.030536    0.909523
     25          6           0       -7.392896    1.844061   -1.990056
     26          1           0       -7.686002    0.803008   -1.834062
     27          1           0       -8.279357    2.473844   -1.806492
     28          1           0       -7.090691    1.958469   -3.032442
     29          6           0       -3.250361    6.824089   -2.223105
     30          1           0       -3.678907    7.635964   -2.801487
     31          6           0       -1.970831    6.907137   -1.770855
     32          1           0       -1.372619    7.786829   -1.984796
     33          6           0       -1.382952    5.841552   -1.017867
     34          6           0       -0.032541    5.865158   -0.546189
     35          6           0        0.495041    4.818747    0.145622
     36          1           0        0.575621    6.739115   -0.756305
     37          1           0        1.523624    4.854758    0.489025
     38          6           0       -3.106988   -0.898486    0.039373
     39          6           0       -3.598316    0.136729    2.666432
     40          6           0       -2.714137   -2.297496    0.559719
     41          1           0       -3.355821   -2.638485    1.374750
     42          1           0       -2.798791   -3.026932   -0.254518
     43          1           0       -1.677634   -2.322796    0.913173
     44          6           0       -4.565283   -0.935915   -0.467572
     45          1           0       -4.888583    0.044453   -0.829567
     46          1           0       -4.634348   -1.640944   -1.305357
     47          1           0       -5.266321   -1.268651    0.298880
     48          6           0       -2.209656   -0.584223   -1.171764
     49          1           0       -2.472531    0.375163   -1.625672
     50          1           0       -1.151700   -0.542409   -0.896249
     51          1           0       -2.327172   -1.359152   -1.938578
     52          6           0       -4.924284   -0.626567    2.802053
     53          1           0       -4.850599   -1.663689    2.469208
     54          1           0       -5.235260   -0.642327    3.853553
     55          1           0       -5.722986   -0.145390    2.231950
     56          6           0       -2.536522   -0.577518    3.544711
     57          1           0       -1.584188   -0.040595    3.558145
     58          1           0       -2.899130   -0.615057    4.578623
     59          1           0       -2.349261   -1.604831    3.222718
     60          6           0       -3.803551    1.547376    3.253003
     61          1           0       -2.866977    2.107435    3.301717
     62          1           0       -4.508614    2.136602    2.659405
     63          1           0       -4.207770    1.475484    4.269593
 ---------------------------------------------------------------------

 SCF Done:  E(RwB97XD) =  -1241.04012885     A.U. after   17 cycles

 Alpha  occ. eigenvalues --  -19.30879 -14.44283 -10.35930 -10.35733 -10.32811
 Alpha  occ. eigenvalues --  -10.30832 -10.30740 -10.30608 -10.30566 -10.30446
 Alpha  occ. eigenvalues --  -10.30343 -10.30327 -10.30202 -10.29561 -10.29553
 Alpha  occ. eigenvalues --  -10.29470 -10.29418 -10.29414 -10.29396 -10.28989
 Alpha  occ. eigenvalues --  -10.28767 -10.27724 -10.27438 -10.27391 -10.27237
 Alpha  occ. eigenvalues --  -10.26919 -10.26612 -10.26373 -10.25932 -10.25741
 Alpha  occ. eigenvalues --   -6.85224  -1.20801  -1.04870  -1.00213  -0.97880
 Alpha  occ. eigenvalues --   -0.93805  -0.91746  -0.90670  -0.89373  -0.89291
 Alpha  occ. eigenvalues --   -0.87195  -0.85768  -0.83219  -0.81542  -0.80716
 Alpha  occ. eigenvalues --   -0.78426  -0.77845  -0.77376  -0.76733  -0.75997
 Alpha  occ. eigenvalues --   -0.75565  -0.73496  -0.72974  -0.69773  -0.67169
 Alpha  occ. eigenvalues --   -0.66186  -0.65903  -0.63961  -0.63333  -0.61243
 Alpha  occ. eigenvalues --   -0.60969  -0.58867  -0.57751  -0.57223  -0.56796
 Alpha  occ. eigenvalues --   -0.56287  -0.55232  -0.54766  -0.54452  -0.53595
 Alpha  occ. eigenvalues --   -0.52849  -0.52500  -0.52203  -0.51930  -0.51511
 Alpha  occ. eigenvalues --   -0.51043  -0.50872  -0.50196  -0.49263  -0.48752
 Alpha  occ. eigenvalues --   -0.48313  -0.48108  -0.47505  -0.47436  -0.47057
 Alpha  occ. eigenvalues --   -0.46605  -0.46135  -0.45875  -0.45636  -0.45520
 Alpha  occ. eigenvalues --   -0.45356  -0.44696  -0.44423  -0.43792  -0.42312
 Alpha  occ. eigenvalues --   -0.41959  -0.41731  -0.41091  -0.40734  -0.40031
 Alpha  occ. eigenvalues --   -0.39864  -0.39579  -0.37613  -0.36184  -0.35759
 Alpha  occ. eigenvalues --   -0.34499  -0.33993  -0.31063  -0.28242  -0.25391
 Alpha virt. eigenvalues --    0.01103   0.01618   0.03809   0.03967   0.04378
 Alpha virt. eigenvalues --    0.04475   0.04678   0.04926   0.05390   0.05456
 Alpha virt. eigenvalues --    0.05699   0.06194   0.06517   0.06782   0.06912

 Mulliken charges:
               1
     1  C    0.500100
     2  C   -0.142740
     3  C   -0.226056
     4  C    0.172157
     5  C    0.044965
     6  C   -0.241423
     7  H    0.228774
     8  H    0.227042
     9  C   -0.129327
    10  O    0.095160
    11  C    0.173594
    12  C    0.121367
    13  C    0.323950
    14  C   -0.195240
    15  C   -0.247360
    16  C   -0.276887
    17  H    0.203183
    18  H    0.208346
    19  B   -1.215943
    20  N    0.328188
    21  C   -0.409887
    22  H    0.182702
    23  H    0.190722
    24  H    0.066885
    25  C   -0.418193
    26  H    0.167303
    27  H    0.151393
    28  H    0.188516
    29  C   -0.443386
    30  H    0.188490
    31  C   -0.272670
    32  H    0.193915
    33  C    0.291331
    34  C   -0.283994
    35  C   -0.538087
    36  H    0.199175
    37  H    0.197604
    38  C   -0.043892
    39  C   -0.072278
    40  C   -0.408511
    41  H    0.174459
    42  H    0.171954
    43  H    0.193744
    44  C   -0.766419
    45  H    0.357570
    46  H    0.168534
    47  H    0.137698
    48  C   -0.371611
    49  H    0.227586
    50  H    0.200238
    51  H    0.176878
    52  C   -0.367287
    53  H    0.170542
    54  H    0.170752
    55  H    0.091255
    56  C   -0.523650
    57  H    0.172403
    58  H    0.180615
    59  H    0.176882
    60  C   -0.412812
    61  H    0.245448
    62  H    0.148025
    63  H    0.198205
 Sum of Mulliken charges =  -0.00000

 Dipole moment (field-independent basis, Debye):
    X=             -1.0532    Y=              0.0833    Z=              0.1060  Tot=              1.0618
 Quadrupole moment (field-independent basis, Debye-Ang):
   XX=           -162.7357   YY=           -178.6741   ZZ=           -187.1947
   XY=             -0.0973   XZ=              7.6896   YZ=             -8.4676

 ESP charges:
               1
     1  C   -0.208400
     2  C    0.039539
     3  C   -0.365126
     4  C    0.247308
     5  C   -0.137396
     6  C    0.275795
     7  H    0.081809
     8  H    0.149885
     9  C    0.046693
    10  O   -0.151491
    11  C   -0.064828
    12  C    0.124998
    13  C    0.201217
    14  C    0.018180
    15  C   -0.342976
    16  C   -0.067163
    17  H    0.156436
    18  H    0.121861
    19  B    0.252510
    20  N   -0.114841
    21  C    0.099610
    22  H   -0.019896
    23  H    0.041103
    24  H   -0.014302
    25  C   -0.134058
    26  H    0.075419
    27  H    0.049839
    28  H    0.062459
    29  C   -0.212006
    30  H    0.132912
    31  C   -0.188144
    32  H    0.128467
    33  C    0.098618
    34  C   -0.165005
    35  C   -0.247509
    36  H    0.127325
    37  H    0.142012
    38  C    0.273974
    39  C    0.327807
    40  C   -0.298951
    41  H    0.052852
    42  H    0.045919
    43  H    0.067532
    44  C   -0.163286
    45  H   -0.061096
    46  H    0.035366
    47  H    0.031529
    48  C   -0.071602
    49  H   -0.049545
    50  H   -0.051460
    51  H    0.032170
    52  C   -0.441323
    53  H    0.097253
    54  H    0.085555
    55  H    0.080563
    56  C   -0.117026
    57  H    0.005200
    58  H    0.023308
    59  H    0.005474
    60  C   -0.169799
    61  H   -0.037809
    62  H    0.002678
    63  H    0.053865
 Sum of ESP charges =   0.00000

 Normal termination of Gaussian 16 at Wed Apr 10 16:47:36 2024.
