 Gaussian 16, Revision C.02,
 Gaussian 16:  AS64L-G16RevC.02  7-Dec-2021

 ----------------------------------------------------------------------
 # wb97xd/genecp scrf=(solvent=toluene,pcm) nosymm pop=(chelpg) scfcyc=
 300
 ----------------------------------------------------------------------

 --------------------------
 tbu_dimethylaniline_chelpg
 --------------------------
 Symbolic Z-matrix:
 Charge =  0 Multiplicity = 1

                          Input orientation:
 ---------------------------------------------------------------------
 Center     Atomic      Atomic             Coordinates (Angstroms)
 Number     Number       Type             X           Y           Z
 ---------------------------------------------------------------------
      1          6           0       -0.703724    0.887561    0.250498
      2          6           0        0.683158    0.953826    0.348938
      3          6           0        1.391131    2.146627    0.184953
      4          6           0        0.651598    3.323073   -0.061675
      5          6           0       -0.742894    3.258948   -0.136858
      6          6           0       -1.415497    2.050067    0.006490
      7          1           0       -1.214385   -0.061994    0.363782
      8          1           0        1.227561    0.032201    0.530200
      9          1           0       -1.320316    4.157902   -0.311133
     10          1           0       -2.497474    2.028394   -0.065946
     11          7           0        1.339041    4.543154   -0.278155
     12          5           0        2.971975    2.049251    0.164581
     13          6           0        2.185626    5.005415    0.808617
     14          1           0        2.881368    4.229970    1.127565
     15          1           0        2.784725    5.851802    0.465183
     16          1           0        1.602670    5.321839    1.688329
     17          6           0        0.586225    5.629978   -0.871567
     18          1           0        0.056239    5.279719   -1.759010
     19          1           0       -0.143705    6.086461   -0.182331
     20          1           0        1.285430    6.409982   -1.181512
     21          6           0        3.704701    2.198711   -1.267193
     22          6           0        4.417023    3.569543   -1.354906
     23          6           0        4.753876    1.096408   -1.518344
     24          6           0        2.696544    2.133542   -2.430640
     25          1           0        3.695133    4.387082   -1.311861
     26          1           0        5.157322    3.715325   -0.566015
     27          1           0        4.941258    3.637144   -2.316085
     28          1           0        4.308421    0.097169   -1.487488
     29          1           0        5.185529    1.229148   -2.517467
     30          1           0        5.578042    1.122107   -0.803023
     31          1           0        3.223531    2.221511   -3.388515
     32          1           0        2.146794    1.187376   -2.436998
     33          1           0        1.966826    2.943641   -2.371616
     34          6           0        3.716835    1.681422    1.553053
     35          6           0        2.844457    1.975908    2.790213
     36          6           0        3.990091    0.154681    1.557350
     37          6           0        5.063862    2.400867    1.755679
     38          1           0        2.595861    3.036992    2.879786
     39          1           0        1.903327    1.422769    2.765428
     40          1           0        3.381144    1.686919    3.701624
     41          1           0        4.687206   -0.151687    0.777545
     42          1           0        4.429573   -0.122148    2.522923
     43          1           0        3.074712   -0.432594    1.444874
     44          1           0        5.511856    2.081808    2.704254
     45          1           0        5.783303    2.182171    0.964918
     46          1           0        4.941923    3.487693    1.805017
 ---------------------------------------------------------------------

 SCF Done:  E(RwB97XD) =  -706.139730625     A.U. after   16 cycles

 Alpha  occ. eigenvalues --  -14.44131 -10.32198 -10.31011 -10.30537 -10.28481
 Alpha  occ. eigenvalues --  -10.28354 -10.28012 -10.27831 -10.27777 -10.27261
 Alpha  occ. eigenvalues --  -10.27198 -10.26882 -10.26780 -10.26594 -10.26413
 Alpha  occ. eigenvalues --  -10.26132 -10.25511  -6.85054  -1.04662  -0.94783
 Alpha  occ. eigenvalues --   -0.90897  -0.89236  -0.84658  -0.84408  -0.81462
 Alpha  occ. eigenvalues --   -0.78354  -0.77764  -0.77220  -0.76707  -0.75044
 Alpha  occ. eigenvalues --   -0.70066  -0.67463  -0.66030  -0.63203  -0.61635
 Alpha  occ. eigenvalues --   -0.57319  -0.56713  -0.56022  -0.55617  -0.53945
 Alpha  occ. eigenvalues --   -0.53233  -0.52487  -0.51824  -0.51145  -0.51017
 Alpha  occ. eigenvalues --   -0.50644  -0.49339  -0.48096  -0.47680  -0.47026
 Alpha  occ. eigenvalues --   -0.46599  -0.46072  -0.45596  -0.45366  -0.44491
 Alpha  occ. eigenvalues --   -0.44414  -0.43789  -0.43618  -0.42657  -0.41825
 Alpha  occ. eigenvalues --   -0.40877  -0.39752  -0.39560  -0.36135  -0.35828
 Alpha  occ. eigenvalues --   -0.35115  -0.31839  -0.27753
 Alpha virt. eigenvalues --    0.03531   0.03818   0.04611   0.04841   0.04920
 Alpha virt. eigenvalues --    0.05942   0.06113   0.06225   0.06473   0.06714
 Alpha virt. eigenvalues --    0.07221   0.07366   0.08013   0.08196   0.08602

 Mulliken charges:
               1
     1  C   -0.532945
     2  C    0.004681
     3  C    0.314570
     4  C   -0.263193
     5  C    0.208540
     6  C   -0.556727
     7  H    0.221426
     8  H    0.199001
     9  H    0.202738
    10  H    0.219522
    11  N    0.222232
    12  B   -0.776626
    13  C   -0.284485
    14  H   -0.058707
    15  H    0.205702
    16  H    0.199392
    17  C   -0.347380
    18  H    0.166358
    19  H    0.160627
    20  H    0.171336
    21  C    0.008583
    22  C   -0.678358
    23  C   -0.401177
    24  C   -0.409420
    25  H    0.174927
    26  H    0.155457
    27  H    0.174751
    28  H    0.179713
    29  H    0.168801
    30  H    0.158672
    31  H    0.176213
    32  H    0.197909
    33  H    0.233573
    34  C   -0.079032
    35  C   -0.438657
    36  C   -0.431106
    37  C   -0.439947
    38  H    0.154875
    39  H    0.226076
    40  H    0.182627
    41  H    0.154849
    42  H    0.174095
    43  H    0.154864
    44  H    0.176988
    45  H    0.172370
    46  H    0.176291
 Sum of Mulliken charges =  -0.00000

 Dipole moment (field-independent basis, Debye):
    X=              0.1553    Y=              1.3569    Z=              0.3475  Tot=              1.4093
 Quadrupole moment (field-independent basis, Debye-Ang):
   XX=           -112.8496   YY=            -99.9145   ZZ=           -120.2567
   XY=              1.4493   XZ=              2.6274   YZ=             -0.2767

 ESP charges:
               1
     1  C   -0.256552
     2  C    0.036699
     3  C   -0.157272
     4  C    0.219141
     5  C   -0.275138
     6  C   -0.032722
     7  H    0.123814
     8  H    0.060714
     9  H    0.128940
    10  H    0.093165
    11  N   -0.039257
    12  B    0.173283
    13  C   -0.193957
    14  H    0.083002
    15  H    0.105056
    16  H    0.059508
    17  C   -0.198378
    18  H    0.088193
    19  H    0.063804
    20  H    0.084560
    21  C    0.291289
    22  C   -0.313917
    23  C   -0.310216
    24  C   -0.078595
    25  H    0.030444
    26  H    0.052381
    27  H    0.071784
    28  H    0.060620
    29  H    0.059491
    30  H    0.064069
    31  H    0.022916
    32  H   -0.037588
    33  H   -0.041998
    34  C    0.400634
    35  C   -0.205762
    36  C   -0.242929
    37  C   -0.361329
    38  H    0.007518
    39  H   -0.025619
    40  H    0.054935
    41  H    0.033905
    42  H    0.044349
    43  H    0.051248
    44  H    0.065308
    45  H    0.079872
    46  H    0.060589
 Sum of ESP charges =  -0.00000

 Normal termination of Gaussian 16 at Wed Apr 10 15:40:49 2024.
