 Gaussian 16, Revision C.02,
 Gaussian 16:  AS64L-G16RevC.02  7-Dec-2021

 ----------------------------------------------------------------------
 # wb97xd/genecp scrf=(solvent=toluene,pcm) nosymm pop=(chelpg) scfcyc=
 300
 ----------------------------------------------------------------------

 ----------------------------------
 4meborinane_dimethylaniline_chelpg
 ----------------------------------
 Symbolic Z-matrix:
 Charge =  0 Multiplicity = 1

                          Input orientation:
 ---------------------------------------------------------------------
 Center     Atomic      Atomic             Coordinates (Angstroms)
 Number     Number       Type             X           Y           Z
 ---------------------------------------------------------------------
      1          6           0       -0.880845    0.961215    0.347897
      2          6           0        0.509688    0.921633    0.388180
      3          6           0        1.309053    2.048375    0.178579
      4          6           0        0.662123    3.280313   -0.092116
      5          6           0       -0.740579    3.320659   -0.095080
      6          6           0       -1.500808    2.176203    0.113123
      7          1           0       -1.460543    0.059071    0.505398
      8          1           0        0.988041   -0.035612    0.571097
      9          1           0       -1.259283    4.254983   -0.260496
     10          1           0       -2.583008    2.248533    0.095317
     11          7           0        1.396633    4.432563   -0.411998
     12          6           0        2.637365    4.706465    0.277814
     13          1           0        3.295642    3.834981    0.309420
     14          1           0        3.189856    5.474886   -0.267052
     15          1           0        2.484689    5.051384    1.310790
     16          6           0        0.671559    5.634661   -0.766037
     17          1           0       -0.040555    5.429769   -1.567591
     18          1           0        0.126800    6.080828    0.081610
     19          1           0        1.382522    6.374714   -1.136895
     20          5           0        2.868531    1.803203    0.198839
     21          6           0        3.625670    1.539572    1.592923
     22          6           0        3.650943    1.608890   -1.183942
     23          6           0        5.126531    1.881853    1.475818
     24          6           0        3.028107    2.320163    2.774478
     25          6           0        3.477311    0.037047    1.945429
     26          6           0        5.160145    1.894803   -1.044565
     27          6           0        3.433913    0.123589   -1.574757
     28          6           0        3.092998    2.453414   -2.339799
     29          6           0        5.797795    1.326796    0.221476
     30          1           0        5.646239    1.526499    2.375480
     31          1           0        5.241413    2.975117    1.472409
     32          1           0        3.164725    3.398458    2.663400
     33          1           0        1.957007    2.128384    2.881041
     34          1           0        3.520900    2.024337    3.708629
     35          1           0        4.047656   -0.167491    2.859254
     36          1           0        2.436679   -0.225925    2.148973
     37          1           0        3.850108   -0.635014    1.171136
     38          1           0        5.681794    1.520113   -1.935285
     39          1           0        5.308049    2.983793   -1.042579
     40          1           0        2.369923   -0.123679   -1.639388
     41          1           0        3.873981   -0.050238   -2.563616
     42          1           0        3.901886   -0.577494   -0.881667
     43          1           0        3.214030    3.523773   -2.158429
     44          1           0        3.621372    2.207713   -3.269376
     45          1           0        2.027213    2.265695   -2.495378
     46          1           0        6.863237    1.577674    0.235971
     47          1           0        5.745821    0.232237    0.217156
 ---------------------------------------------------------------------

 SCF Done:  E(RwB97XD) =  -744.253760281     A.U. after   15 cycles

 Alpha  occ. eigenvalues --  -14.44595 -10.32612 -10.31717 -10.30792 -10.28313
 Alpha  occ. eigenvalues --  -10.28140 -10.27662 -10.27364 -10.27241 -10.27164
 Alpha  occ. eigenvalues --  -10.27137 -10.27043 -10.27033 -10.27000 -10.26960
 Alpha  occ. eigenvalues --  -10.26717 -10.26184 -10.25800  -6.84531  -1.05097
 Alpha  occ. eigenvalues --   -0.94602  -0.92780  -0.89125  -0.85434  -0.84554
 Alpha  occ. eigenvalues --   -0.83777  -0.81856  -0.77968  -0.77271  -0.76434
 Alpha  occ. eigenvalues --   -0.75486  -0.70690  -0.69339  -0.67215  -0.65022
 Alpha  occ. eigenvalues --   -0.63181  -0.61846  -0.57425  -0.56855  -0.56216
 Alpha  occ. eigenvalues --   -0.55899  -0.54734  -0.53343  -0.53093  -0.51938
 Alpha  occ. eigenvalues --   -0.51361  -0.50546  -0.49996  -0.49922  -0.48849
 Alpha  occ. eigenvalues --   -0.48381  -0.47357  -0.46861  -0.46612  -0.45944
 Alpha  occ. eigenvalues --   -0.45532  -0.45126  -0.44102  -0.43693  -0.43373
 Alpha  occ. eigenvalues --   -0.42191  -0.42000  -0.40244  -0.39931  -0.39626
 Alpha  occ. eigenvalues --   -0.39112  -0.36567  -0.35379  -0.35009  -0.31534
 Alpha  occ. eigenvalues --   -0.26838
 Alpha virt. eigenvalues --    0.03789   0.04101   0.04612   0.04877   0.04987
 Alpha virt. eigenvalues --    0.05933   0.06090   0.06328   0.06471   0.06657
 Alpha virt. eigenvalues --    0.07263   0.07424   0.07741   0.08107   0.08576

 Mulliken charges:
               1
     1  C   -0.530788
     2  C    0.086532
     3  C    0.439795
     4  C   -0.085378
     5  C   -0.037122
     6  C   -0.596126
     7  H    0.223352
     8  H    0.225225
     9  H    0.195996
    10  H    0.211170
    11  N    0.282692
    12  C   -0.467224
    13  H    0.024894
    14  H    0.205402
    15  H    0.216179
    16  C   -0.310634
    17  H    0.158610
    18  H    0.173510
    19  H    0.173857
    20  B   -0.819846
    21  C   -0.115180
    22  C   -0.232159
    23  C   -0.174538
    24  C   -0.389227
    25  C   -0.506347
    26  C   -0.146524
    27  C   -0.497231
    28  C   -0.353883
    29  C   -0.609998
    30  H    0.174923
    31  H    0.177361
    32  H    0.100529
    33  H    0.240372
    34  H    0.191081
    35  H    0.184353
    36  H    0.160657
    37  H    0.151857
    38  H    0.177720
    39  H    0.179957
    40  H    0.225395
    41  H    0.189318
    42  H    0.153836
    43  H    0.165714
    44  H    0.186075
    45  H    0.226993
    46  H    0.223531
    47  H    0.145320
 Sum of Mulliken charges =  -0.00000

 Dipole moment (field-independent basis, Debye):
    X=              0.7615    Y=              1.6459    Z=              0.0658  Tot=              1.8147
 Quadrupole moment (field-independent basis, Debye-Ang):
   XX=           -115.6975   YY=           -102.4973   ZZ=           -125.6956
   XY=              4.0076   XZ=              1.2396   YZ=             -1.6255

 ESP charges:
               1
     1  C   -0.221238
     2  C   -0.010746
     3  C   -0.164762
     4  C    0.242867
     5  C   -0.252460
     6  C   -0.070000
     7  H    0.112099
     8  H    0.068543
     9  H    0.126170
    10  H    0.098549
    11  N   -0.200568
    12  C   -0.018271
    13  H    0.017016
    14  H    0.077791
    15  H    0.046472
    16  C   -0.139645
    17  H    0.074682
    18  H    0.055120
    19  H    0.086689
    20  B    0.291064
    21  C    0.225114
    22  C    0.271388
    23  C   -0.126311
    24  C   -0.199838
    25  C   -0.267812
    26  C   -0.151849
    27  C   -0.180180
    28  C   -0.233376
    29  C    0.007829
    30  H    0.017670
    31  H    0.004571
    32  H    0.017825
    33  H   -0.015466
    34  H    0.053557
    35  H    0.062258
    36  H    0.048010
    37  H    0.063283
    38  H    0.012929
    39  H    0.018317
    40  H   -0.002887
    41  H    0.046775
    42  H    0.035093
    43  H    0.011605
    44  H    0.052109
    45  H   -0.000028
    46  H    0.020950
    47  H   -0.010909
 Sum of ESP charges =   0.00000

 Normal termination of Gaussian 16 at Tue Apr  9 17:06:04 2024.
