 Gaussian 16, Revision C.02,
 Gaussian 16:  AS64L-G16RevC.02  7-Dec-2021

 ----------------------------------------------------------------------
 # wb97xd/genecp scrf=(solvent=toluene,pcm) nosymm pop=(chelpg) scfcyc=
 300
 ----------------------------------------------------------------------

 -------------------------
 bicyclo_metriazole_chelpg
 -------------------------
 Symbolic Z-matrix:
 Charge =  0 Multiplicity = 1

                          Input orientation:
 ---------------------------------------------------------------------
 Center     Atomic      Atomic             Coordinates (Angstroms)
 Number     Number       Type             X           Y           Z
 ---------------------------------------------------------------------
      1          6           0        2.072204   -0.014758   -0.308965
      2          1           0        1.109703   -0.252059    0.114277
      3          6           0        3.325656    0.122759    0.261913
      4          7           0        2.242642    0.216152   -1.617077
      5          7           0        3.538600    0.488878   -1.878761
      6          7           0        4.184547    0.434567   -0.768187
      7          6           0        1.264740    0.204715   -2.688423
      8          1           0        0.495888    0.954778   -2.501977
      9          1           0        1.789817    0.441646   -3.611341
     10          1           0        0.809339   -0.782432   -2.769650
     11          6           0        5.224956    0.160473    2.251726
     12          6           0        2.762521   -0.373137    2.904842
     13          6           0        5.670446   -1.184955    2.878996
     14          1           0        5.925010    0.399730    1.445795
     15          6           0        3.228591   -1.715999    3.523405
     16          1           0        1.726331   -0.510768    2.572888
     17          6           0        4.711009   -1.773359    3.926378
     18          1           0        6.667037   -1.071727    3.323277
     19          1           0        5.784452   -1.909739    2.062803
     20          1           0        2.605581   -1.956888    4.393738
     21          1           0        3.037153   -2.506365    2.785858
     22          1           0        4.984654   -2.818387    4.106910
     23          1           0        4.851960   -1.267087    4.882413
     24          5           0        3.755111   -0.024906    1.734929
     25          6           0        2.773745    0.826863    3.887019
     26          1           0        2.286668    1.672756    3.384525
     27          1           0        2.151325    0.594091    4.759977
     28          6           0        5.214361    1.357424    3.236915
     29          1           0        5.031236    2.267775    2.651845
     30          1           0        6.210849    1.478424    3.679331
     31          6           0        4.166463    1.275950    4.358958
     32          1           0        4.520476    0.609124    5.146456
     33          1           0        4.076157    2.260979    4.829152
 ---------------------------------------------------------------------

 SCF Done:  E(RwB97XD) =  -619.072040467     A.U. after   15 cycles

 Alpha  occ. eigenvalues --  -14.53484 -14.49656 -14.45923 -10.33888 -10.33853
 Alpha  occ. eigenvalues --  -10.29203 -10.27597 -10.27578 -10.27219 -10.27201
 Alpha  occ. eigenvalues --  -10.26940 -10.26932 -10.25781 -10.25011  -6.83006
 Alpha  occ. eigenvalues --   -1.21556  -1.03041  -0.92810  -0.91053  -0.86746
 Alpha  occ. eigenvalues --   -0.85404  -0.84343  -0.78064  -0.76500  -0.73102
 Alpha  occ. eigenvalues --   -0.69413  -0.66917  -0.65552  -0.64363  -0.62300
 Alpha  occ. eigenvalues --   -0.59531  -0.58155  -0.55820  -0.54515  -0.52306
 Alpha  occ. eigenvalues --   -0.51983  -0.51371  -0.50783  -0.50113  -0.50065
 Alpha  occ. eigenvalues --   -0.48970  -0.46936  -0.43939  -0.43511  -0.42545
 Alpha  occ. eigenvalues --   -0.41568  -0.41353  -0.40856  -0.40076  -0.38227
 Alpha  occ. eigenvalues --   -0.36673  -0.36398  -0.35053  -0.34975  -0.33397
 Alpha virt. eigenvalues --    0.02432   0.03477   0.04401   0.04841   0.05356
 Alpha virt. eigenvalues --    0.05756   0.06135   0.07048   0.07485   0.07668
 Alpha virt. eigenvalues --    0.08107   0.08412   0.08746   0.08804   0.09548

 Mulliken charges:
               1
     1  C   -0.204577
     2  H    0.278850
     3  C   -1.170871
     4  N    0.292863
     5  N    0.082309
     6  N   -0.088707
     7  C   -0.357246
     8  H    0.196436
     9  H    0.210933
    10  H    0.196406
    11  C    0.295019
    12  C    0.413410
    13  C   -0.781549
    14  H    0.209761
    15  C   -0.801313
    16  H    0.194103
    17  C   -0.178629
    18  H    0.175868
    19  H    0.172420
    20  H    0.172432
    21  H    0.179280
    22  H    0.202062
    23  H    0.136522
    24  B    0.885275
    25  C   -0.794032
    26  H    0.179337
    27  H    0.172647
    28  C   -0.776537
    29  H    0.172236
    30  H    0.176087
    31  C   -0.179431
    32  H    0.136137
    33  H    0.202499
 Sum of Mulliken charges =  -0.00000

 Dipole moment (field-independent basis, Debye):
    X=             -5.3192    Y=             -0.9170    Z=             -0.2114  Tot=              5.4018
 Quadrupole moment (field-independent basis, Debye-Ang):
   XX=           -121.9235   YY=            -91.9954   ZZ=            -88.3381
   XY=             -4.5442   XZ=              9.1380   YZ=              1.2786

 ESP charges:
               1
     1  C   -0.394699
     2  H    0.195163
     3  C    0.196370
     4  N    0.593510
     5  N   -0.389805
     6  N   -0.270689
     7  C   -0.328899
     8  H    0.127696
     9  H    0.119864
    10  H    0.126896
    11  C    0.199774
    12  C   -0.050465
    13  C    0.066713
    14  H   -0.152454
    15  C    0.112203
    16  H   -0.031655
    17  C   -0.060274
    18  H   -0.031038
    19  H   -0.025104
    20  H   -0.032126
    21  H   -0.042477
    22  H    0.000637
    23  H   -0.000334
    24  B    0.087955
    25  C    0.107346
    26  H   -0.040770
    27  H   -0.029839
    28  C    0.055190
    29  H   -0.020600
    30  H   -0.027389
    31  C   -0.067830
    32  H    0.002461
    33  H    0.004669
 Sum of ESP charges =  -0.00000

 Normal termination of Gaussian 16 at Tue Apr  9 17:40:11 2024.
