 Gaussian 16, Revision C.02,
 Gaussian 16:  AS64L-G16RevC.02  7-Dec-2021

 ----------------------------------------------------------------------
 # wb97xd/genecp scrf=(solvent=toluene,pcm) nosymm pop=(chelpg) scfcyc=
 300
 ----------------------------------------------------------------------

 -----------------------------
 borole_dimethylaniline_chelpg
 -----------------------------
 Symbolic Z-matrix:
 Charge =  0 Multiplicity = 1

                          Input orientation:
 ---------------------------------------------------------------------
 Center     Atomic      Atomic             Coordinates (Angstroms)
 Number     Number       Type             X           Y           Z
 ---------------------------------------------------------------------
      1          6           0       -0.600013    0.952882    0.827097
      2          6           0        0.743297    1.200837    1.060922
      3          6           0        0.602347    3.345375   -0.066611
      4          6           0       -0.751515    3.076700   -0.322100
      5          6           0       -1.333567    1.894516    0.112773
      6          1           0       -1.066448    0.041771    1.182335
      7          1           0        1.334587    0.457513    1.586202
      8          1           0       -1.368660    3.803595   -0.833739
      9          1           0       -2.385882    1.722223   -0.088503
     10          7           0        1.178531    4.551934   -0.450561
     11          6           0        1.961340    5.310228    0.516708
     12          1           0        2.308457    4.668647    1.323868
     13          1           0        2.835716    5.759174    0.038281
     14          1           0        1.352182    6.113267    0.957826
     15          6           0        0.454803    5.411386   -1.364413
     16          1           0        0.086657    4.840234   -2.217947
     17          1           0       -0.393232    5.927410   -0.886809
     18          1           0        1.141307    6.172944   -1.740342
     19          6           0        1.389785    2.356003    0.586855
     20          5           0        2.926694    2.327588    0.582749
     21          6           0        3.941632    3.029478   -0.417992
     22          6           0        3.871784    1.488605    1.546623
     23          6           0        5.170397    2.655872   -0.038086
     24          1           0        3.742574    3.672383   -1.266216
     25          6           0        5.128934    1.743133    1.158792
     26          1           0        3.633212    0.860474    2.397276
     27          1           0        6.106142    2.941207   -0.510385
     28          1           0        6.034359    1.359541    1.620565
 ---------------------------------------------------------------------

 SCF Done:  E(RwB97XD) =  -545.209314755     A.U. after   17 cycles

 Alpha  occ. eigenvalues --  -14.45115 -10.33588 -10.31043 -10.30960 -10.29667
 Alpha  occ. eigenvalues --  -10.29395 -10.29270 -10.29100 -10.28475 -10.28057
 Alpha  occ. eigenvalues --  -10.26935 -10.25596 -10.25440  -6.84145  -1.05530
 Alpha  occ. eigenvalues --   -0.95267  -0.92300  -0.85268  -0.85112  -0.81746
 Alpha  occ. eigenvalues --   -0.80078  -0.75903  -0.71089  -0.69269  -0.67260
 Alpha  occ. eigenvalues --   -0.62192  -0.60235  -0.59694  -0.57079  -0.56652
 Alpha  occ. eigenvalues --   -0.55895  -0.53927  -0.52216  -0.51210  -0.49048
 Alpha  occ. eigenvalues --   -0.48026  -0.47848  -0.46954  -0.46323  -0.45843
 Alpha  occ. eigenvalues --   -0.43785  -0.43301  -0.42088  -0.39196  -0.38874
 Alpha  occ. eigenvalues --   -0.36691  -0.33471  -0.29999  -0.27840
 Alpha virt. eigenvalues --   -0.02910   0.03883   0.04801   0.04894   0.05050
 Alpha virt. eigenvalues --    0.05797   0.06123   0.06241   0.06577   0.07501
 Alpha virt. eigenvalues --    0.07640   0.08162   0.08877   0.09148   0.09822

 Mulliken charges:
               1
     1  C   -0.611925
     2  C   -0.024374
     3  C   -0.489029
     4  C   -0.302844
     5  C   -0.361733
     6  H    0.220286
     7  H    0.199443
     8  H    0.180612
     9  H    0.229132
    10  N    0.275175
    11  C   -0.449789
    12  H    0.187800
    13  H    0.203706
    14  H    0.162940
    15  C   -0.406708
    16  H    0.169647
    17  H    0.181153
    18  H    0.181607
    19  C    0.498940
    20  B    0.212209
    21  C   -0.588617
    22  C   -0.329925
    23  C    0.090617
    24  H    0.192949
    25  C   -0.260651
    26  H    0.186424
    27  H    0.230867
    28  H    0.222085
 Sum of Mulliken charges =  -0.00000

 Dipole moment (field-independent basis, Debye):
    X=             -0.9137    Y=              1.9233    Z=             -0.4654  Tot=              2.1795
 Quadrupole moment (field-independent basis, Debye-Ang):
   XX=            -79.3542   YY=            -66.5073   ZZ=            -84.8211
   XY=              0.6155   XZ=              1.6504   YZ=             -6.3348

 ESP charges:
               1
     1  C   -0.188872
     2  C    0.037874
     3  C    0.431178
     4  C   -0.259868
     5  C   -0.040487
     6  H    0.104957
     7  H    0.057009
     8  H    0.124995
     9  H    0.098481
    10  N   -0.334910
    11  C    0.195757
    12  H   -0.029437
    13  H    0.017008
    14  H   -0.019175
    15  C   -0.130941
    16  H    0.061941
    17  H    0.071616
    18  H    0.098435
    19  C   -0.457299
    20  B    0.681215
    21  C   -0.534083
    22  C   -0.455276
    23  C    0.055543
    24  H    0.149005
    25  C   -0.032402
    26  H    0.141649
    27  H    0.069731
    28  H    0.086356
 Sum of ESP charges =  -0.00000

 Normal termination of Gaussian 16 at Tue Apr  9 16:13:55 2024.
