 Gaussian 16, Revision C.02,
 Gaussian 16:  AS64L-G16RevC.02  7-Dec-2021

 ----------------------------------------------------------------------
 # wb97xd/genecp scrf=(solvent=toluene,pcm) nosymm pop=(chelpg) scfcyc=
 300
 ----------------------------------------------------------------------

 ----------------------
 ccl3_metriazole_chelpg
 ----------------------
 Symbolic Z-matrix:
 Charge =  0 Multiplicity = 1

                          Input orientation:
 ---------------------------------------------------------------------
 Center     Atomic      Atomic             Coordinates (Angstroms)
 Number     Number       Type             X           Y           Z
 ---------------------------------------------------------------------
      1          6           0        2.799052    1.717297    1.087780
      2          1           0        3.170918    2.395394    1.837108
      3          6           0        3.022783    0.371184    0.852772
      4          7           0        1.975335    2.112994    0.112869
      5          7           0        1.662626    1.078058   -0.690744
      6          7           0        2.293604    0.044052   -0.266757
      7          5           0        3.912261   -0.631079    1.606905
      8          6           0        1.438625    3.435036   -0.156390
      9          1           0        1.852964    3.817466   -1.088722
     10          1           0        0.354347    3.371837   -0.233131
     11          1           0        1.711241    4.093860    0.665675
     12          6           0        4.146155   -0.436680    3.195331
     13          6           0        4.611889   -1.833726    0.795132
     14         17           0        5.621855    0.612717    3.157428
     15         17           0        2.822158    0.448228    4.013167
     16         17           0        4.450807   -1.899648    4.157244
     17         17           0        4.888526   -1.475317   -0.927205
     18         17           0        6.148762   -2.468248    1.442637
     19         17           0        3.305157   -3.070349    0.970167
 ---------------------------------------------------------------------

 SCF Done:  E(RwB97XD) =  -3143.21094206     A.U. after   17 cycles

 Alpha  occ. eigenvalues -- -101.75896-101.75084-101.75052-101.74903-101.74356
 Alpha  occ. eigenvalues -- -101.73981 -14.54978 -14.51007 -14.47773 -10.47868
 Alpha  occ. eigenvalues --  -10.47142 -10.35895 -10.34802 -10.32112  -9.62760
 Alpha  occ. eigenvalues --   -9.61979  -9.61943  -9.61827  -9.61283  -9.60901
 Alpha  occ. eigenvalues --   -7.37704  -7.36949  -7.36893  -7.36815  -7.36689
 Alpha  occ. eigenvalues --   -7.36642  -7.36261  -7.35889  -7.35883  -7.35881
 Alpha  occ. eigenvalues --   -7.35848  -7.35808  -7.35719  -7.35688  -7.35179
 Alpha  occ. eigenvalues --   -7.35149  -7.34802  -7.34753  -6.93285  -1.23356
 Alpha  occ. eigenvalues --   -1.06054  -1.04869  -1.04442  -0.95571  -0.95069
 Alpha  occ. eigenvalues --   -0.94751  -0.93906  -0.93085  -0.85755  -0.78488
 Alpha  occ. eigenvalues --   -0.74426  -0.73415  -0.70997  -0.65757  -0.62110
 Alpha  occ. eigenvalues --   -0.60968  -0.58394  -0.58183  -0.57479  -0.56620
 Alpha  occ. eigenvalues --   -0.55674  -0.54564  -0.53242  -0.52461  -0.50960
 Alpha  occ. eigenvalues --   -0.46215  -0.45803  -0.45383  -0.44509  -0.44015
 Alpha  occ. eigenvalues --   -0.42433  -0.42337  -0.41329  -0.40988  -0.40651
 Alpha  occ. eigenvalues --   -0.40036  -0.39524  -0.39419  -0.38616  -0.37094
 Alpha  occ. eigenvalues --   -0.35886
 Alpha virt. eigenvalues --   -0.03117   0.01723   0.02837   0.03636   0.04212
 Alpha virt. eigenvalues --    0.04999   0.05682   0.06007   0.06293   0.06535
 Alpha virt. eigenvalues --    0.06878   0.07873   0.08105   0.08347   0.08881

 Mulliken charges:
               1
     1  C   -0.276319
     2  H    0.203928
     3  C   -0.498291
     4  N    0.224578
     5  N    0.015258
     6  N   -0.072941
     7  B   -0.053070
     8  C   -0.354621
     9  H    0.222694
    10  H    0.217534
    11  H    0.186587
    12  C   -0.013915
    13  C   -0.081990
    14  Cl  -0.312052
    15  Cl   0.173395
    16  Cl   0.257091
    17  Cl   0.130537
    18  Cl   0.293893
    19  Cl  -0.262297
 Sum of Mulliken charges =  -0.00000

 Dipole moment (field-independent basis, Debye):
    X=             -0.9606    Y=              6.3092    Z=              1.2580  Tot=              6.5047
 Quadrupole moment (field-independent basis, Debye-Ang):
   XX=           -134.6661   YY=           -110.2854   ZZ=           -132.8690
   XY=             15.2709   XZ=              0.7097   YZ=              2.1343

 ESP charges:
               1
     1  C   -0.348526
     2  H    0.166272
     3  C    0.124928
     4  N    0.657953
     5  N   -0.345277
     6  N   -0.282369
     7  B    0.564673
     8  C   -0.595625
     9  H    0.196519
    10  H    0.189974
    11  H    0.219164
    12  C   -0.231568
    13  C   -0.337448
    14  Cl  -0.007433
    15  Cl  -0.024064
    16  Cl   0.008883
    17  Cl   0.014417
    18  Cl   0.013951
    19  Cl   0.015577
 Sum of ESP charges =  -0.00000

 Normal termination of Gaussian 16 at Mon Apr  8 16:39:41 2024.
