 Gaussian 16, Revision C.02,
 Gaussian 16:  AS64L-G16RevC.02  7-Dec-2021

 ----------------------------------------------------------------------
 # wb97xd/genecp scrf=(solvent=toluene,pcm) nosymm pop=(chelpg) scfcyc=
 300
 ----------------------------------------------------------------------

 ----------------------
 cf3_naphthalene_chelpg
 ----------------------
 Symbolic Z-matrix:
 Charge =  0 Multiplicity = 1

                          Input orientation:
 ---------------------------------------------------------------------
 Center     Atomic      Atomic             Coordinates (Angstroms)
 Number     Number       Type             X           Y           Z
 ---------------------------------------------------------------------
      1          6           0       -5.357162   -0.815304    0.492212
      2          6           0       -4.039878   -0.801504    0.145297
      3          6           0       -3.337273    0.396296   -0.042834
      4          6           0       -3.978001    1.640358    0.074004
      5          6           0       -5.351451    1.627433    0.434369
      6          6           0       -6.005097    0.439096    0.648430
      7          1           0       -5.914611   -1.732488    0.639288
      8          6           0       -1.966000    0.228885   -0.330030
      9          6           0       -3.177095    2.784309   -0.170587
     10          1           0       -5.883478    2.566067    0.546896
     11          1           0       -7.050809    0.447341    0.932775
     12          6           0       -1.847750    2.634965   -0.487222
     13          6           0       -1.225901    1.361036   -0.555071
     14          1           0       -3.617349    3.773337   -0.102213
     15          1           0       -1.246584    3.518510   -0.672611
     16          1           0       -0.163651    1.301534   -0.764836
     17          5           0       -1.637710   -1.323920   -0.137207
     18          7           0       -3.188421   -1.961766   -0.194930
     19          6           0       -3.427482   -3.135217    0.692483
     20          1           0       -4.429011   -3.526223    0.511212
     21          1           0       -2.691745   -3.901596    0.456980
     22          1           0       -3.333697   -2.833146    1.731042
     23          6           0       -3.561086   -2.366233   -1.592380
     24          1           0       -2.965817   -3.227232   -1.887406
     25          1           0       -4.619880   -2.624009   -1.603863
     26          1           0       -3.376966   -1.533493   -2.266618
     27          6           0       -0.646781   -1.998545   -1.245786
     28          6           0       -1.003387   -1.534522    1.365152
     29          9           0        0.108634   -0.792548    1.545516
     30          9           0       -0.647558   -2.811390    1.673746
     31          9           0       -1.859029   -1.152870    2.357161
     32          9           0        0.640041   -1.637366   -1.048659
     33          9           0       -0.654163   -3.363948   -1.242769
     34          9           0       -0.925497   -1.644405   -2.528021
 ---------------------------------------------------------------------

 SCF Done:  E(RwB97XD) =  -1219.42650861     A.U. after   15 cycles

 Alpha  occ. eigenvalues --  -24.83202 -24.83059 -24.83051 -24.82891 -24.82801
 Alpha  occ. eigenvalues --  -24.82669 -14.55120 -10.50916 -10.50633 -10.35126
 Alpha  occ. eigenvalues --  -10.34204 -10.34101 -10.31694 -10.31339 -10.31025
 Alpha  occ. eigenvalues --  -10.30744 -10.30629 -10.30017 -10.29945 -10.29699
 Alpha  occ. eigenvalues --  -10.28562  -6.86458  -1.41067  -1.40633  -1.32158
 Alpha  occ. eigenvalues --   -1.31982  -1.31699  -1.31659  -1.11506  -0.99790
 Alpha  occ. eigenvalues --   -0.94254  -0.90118  -0.86364  -0.85210  -0.84278
 Alpha  occ. eigenvalues --   -0.81478  -0.79374  -0.78991  -0.74282  -0.72731
 Alpha  occ. eigenvalues --   -0.70833  -0.69862  -0.67904  -0.67458  -0.67138
 Alpha  occ. eigenvalues --   -0.67021  -0.64596  -0.63018  -0.62358  -0.61999
 Alpha  occ. eigenvalues --   -0.59700  -0.58611  -0.58277  -0.56186  -0.55777
 Alpha  occ. eigenvalues --   -0.55374  -0.55130  -0.54384  -0.53496  -0.52667
 Alpha  occ. eigenvalues --   -0.52243  -0.51878  -0.51281  -0.50957  -0.50791
 Alpha  occ. eigenvalues --   -0.50559  -0.50319  -0.49813  -0.49354  -0.49097
 Alpha  occ. eigenvalues --   -0.48481  -0.48248  -0.46408  -0.44372  -0.43507
 Alpha  occ. eigenvalues --   -0.43311  -0.41643  -0.39999  -0.38021  -0.33602
 Alpha  occ. eigenvalues --   -0.30352
 Alpha virt. eigenvalues --    0.00120   0.02999   0.03459   0.04458   0.05041
 Alpha virt. eigenvalues --    0.05759   0.06202   0.06652   0.06767   0.07370
 Alpha virt. eigenvalues --    0.08220   0.08504   0.08602   0.09231   0.09759

 Mulliken charges:
               1
     1  C   -0.315371
     2  C    0.046265
     3  C   -0.109746
     4  C    0.286120
     5  C   -0.311598
     6  C   -0.494649
     7  H    0.214978
     8  C   -0.006637
     9  C   -0.330252
    10  H    0.210380
    11  H    0.245865
    12  C   -0.260105
    13  C   -0.176753
    14  H    0.207906
    15  H    0.240351
    16  H    0.259494
    17  B    0.208005
    18  N   -0.052334
    19  C   -0.344110
    20  H    0.177432
    21  H    0.278728
    22  H    0.265193
    23  C   -0.462207
    24  H    0.263900
    25  H    0.222134
    26  H    0.260640
    27  C   -0.076897
    28  C   -0.169320
    29  F   -0.045059
    30  F   -0.038864
    31  F   -0.055237
    32  F   -0.046983
    33  F   -0.056339
    34  F   -0.034932
 Sum of Mulliken charges =  -0.00000

 Dipole moment (field-independent basis, Debye):
    X=             -7.6666    Y=             -0.1271    Z=             -1.0413  Tot=              7.7380
 Quadrupole moment (field-independent basis, Debye-Ang):
   XX=            -84.0130   YY=           -110.3811   ZZ=           -133.4730
   XY=             16.1032   XZ=              0.6286   YZ=              0.4690

 ESP charges:
               1
     1  C   -0.230790
     2  C    0.250077
     3  C   -0.072905
     4  C    0.279333
     5  C   -0.316719
     6  C   -0.038247
     7  H    0.161767
     8  C    0.101407
     9  C   -0.309649
    10  H    0.164794
    11  H    0.109685
    12  C   -0.018610
    13  C   -0.207586
    14  H    0.150356
    15  H    0.101645
    16  H    0.133212
    17  B   -0.267007
    18  N   -0.190273
    19  C   -0.311671
    20  H    0.149369
    21  H    0.173467
    22  H    0.172130
    23  C   -0.125833
    24  H    0.152554
    25  H    0.097220
    26  H    0.085017
    27  C    0.719494
    28  C    0.812264
    29  F   -0.291205
    30  F   -0.292851
    31  F   -0.318906
    32  F   -0.262057
    33  F   -0.272837
    34  F   -0.286647
 Sum of ESP charges =  -0.00000

 Normal termination of Gaussian 16 at Thu Apr 11 16:29:56 2024.
