 Gaussian 16, Revision C.02,
 Gaussian 16:  AS64L-G16RevC.02  7-Dec-2021

 ----------------------------------------------------------------------
 # wb97xd/genecp scrf=(solvent=toluene,pcm) nosymm pop=(chelpg) scfcyc=
 300
 ----------------------------------------------------------------------

 -----------------------
 cf3_dibenzofuran_chelpg
 -----------------------
 Symbolic Z-matrix:
 Charge =  0 Multiplicity = 1

                          Input orientation:
 ---------------------------------------------------------------------
 Center     Atomic      Atomic             Coordinates (Angstroms)
 Number     Number       Type             X           Y           Z
 ---------------------------------------------------------------------
      1          6           0        2.127564    2.188923    0.199702
      2          6           0        1.972324    2.572501   -1.135925
      3          8           0        1.604711    3.111785    1.036215
      4          6           0        1.305372    3.859567   -1.100410
      5          6           0        1.114598    4.131030    0.250499
      6          6           0        0.831081    4.741108   -2.072513
      7          6           0        0.460797    5.272445    0.736143
      8          6           0        0.173850    5.873245   -1.627922
      9          1           0        0.963710    4.541065   -3.128543
     10          6           0       -0.002419    6.135553   -0.263573
     11          1           0       -0.213322    6.587245   -2.345818
     12          1           0       -0.515254    7.044765    0.021072
     13          6           0        2.418220    1.727338   -2.143999
     14          1           0        2.313116    2.007996   -3.185921
     15          6           0        2.990789    0.507881   -1.794803
     16          1           0        3.340755   -0.164075   -2.568528
     17          6           0        3.108182    0.133864   -0.462145
     18          6           0        2.700136    0.971592    0.602369
     19          1           0        3.554313   -0.826189   -0.237181
     20          5           0        2.972354    0.576799    2.042631
     21          7           0        0.249417    5.474530    2.100626
     22          6           0        1.424852    5.419587    2.964339
     23          1           0        2.023053    6.340371    2.885903
     24          1           0        1.099993    5.303646    4.000157
     25          1           0        2.052905    4.570339    2.713501
     26          6           0       -0.659583    6.540908    2.471597
     27          1           0       -0.869382    6.458297    3.539413
     28          1           0       -0.246099    7.544946    2.283110
     29          1           0       -1.603238    6.441291    1.932321
     30          6           0        3.168959    1.651225    3.241124
     31          6           0        3.163434   -0.968851    2.491351
     32          9           0        3.944714    1.185937    4.242312
     33          9           0        1.980228    1.979316    3.789695
     34          9           0        3.753674    2.795069    2.830268
     35          9           0        2.654327   -1.213906    3.713978
     36          9           0        4.482023   -1.275221    2.536410
     37          9           0        2.588408   -1.865672    1.665313
 ---------------------------------------------------------------------

 SCF Done:  E(RwB97XD) =  -1370.79312554     A.U. after   16 cycles

 Alpha  occ. eigenvalues --  -24.85172 -24.84977 -24.84914 -24.84888 -24.84685
 Alpha  occ. eigenvalues --  -24.84537 -19.33233 -14.45292 -10.53456 -10.53248
 Alpha  occ. eigenvalues --  -10.38109 -10.35887 -10.34363 -10.32750 -10.32614
 Alpha  occ. eigenvalues --  -10.31989 -10.31387 -10.31259 -10.31028 -10.30936
 Alpha  occ. eigenvalues --  -10.30401 -10.29809 -10.29748 -10.29561  -6.91825
 Alpha  occ. eigenvalues --   -1.43248  -1.42834  -1.34235  -1.34139  -1.34011
 Alpha  occ. eigenvalues --   -1.33657  -1.24280  -1.05783  -0.99289  -0.97205
 Alpha  occ. eigenvalues --   -0.90899  -0.88724  -0.85985  -0.84957  -0.83484
 Alpha  occ. eigenvalues --   -0.81735  -0.81259  -0.77418  -0.75517  -0.73682
 Alpha  occ. eigenvalues --   -0.73152  -0.71015  -0.69590  -0.69478  -0.69300
 Alpha  occ. eigenvalues --   -0.69213  -0.67444  -0.67090  -0.64292  -0.62604
 Alpha  occ. eigenvalues --   -0.61175  -0.58817  -0.58355  -0.57715  -0.57469
 Alpha  occ. eigenvalues --   -0.57054  -0.56964  -0.56761  -0.55870  -0.55710
 Alpha  occ. eigenvalues --   -0.55468  -0.54225  -0.53829  -0.53536  -0.52968
 Alpha  occ. eigenvalues --   -0.52311  -0.51852  -0.51349  -0.50967  -0.50740
 Alpha  occ. eigenvalues --   -0.49055  -0.48819  -0.48158  -0.47759  -0.47468
 Alpha  occ. eigenvalues --   -0.46285  -0.46172  -0.45565  -0.44776  -0.44131
 Alpha  occ. eigenvalues --   -0.43178  -0.39750  -0.37245  -0.34032  -0.31757
 Alpha  occ. eigenvalues --   -0.28395
 Alpha virt. eigenvalues --   -0.05221   0.01625   0.03735   0.04310   0.05007
 Alpha virt. eigenvalues --    0.05204   0.05867   0.06014   0.06230   0.06648
 Alpha virt. eigenvalues --    0.07284   0.07690   0.07830   0.08106   0.08737

 Mulliken charges:
               1
     1  C   -0.505547
     2  C    0.778905
     3  O    0.062106
     4  C    0.874269
     5  C   -0.516223
     6  C   -0.585699
     7  C   -0.427125
     8  C   -0.406452
     9  H    0.174576
    10  C    0.177630
    11  H    0.242328
    12  H    0.193616
    13  C   -0.313444
    14  H    0.220124
    15  C   -0.831940
    16  H    0.254331
    17  C    0.060795
    18  C    0.219117
    19  H    0.248827
    20  B    0.496726
    21  N    0.093195
    22  C   -0.465566
    23  H    0.178458
    24  H    0.169880
    25  H    0.159949
    26  C   -0.373489
    27  H    0.183991
    28  H    0.163345
    29  H    0.163241
    30  C   -0.204880
    31  C   -0.177796
    32  F   -0.054375
    33  F   -0.034823
    34  F   -0.051677
    35  F   -0.050453
    36  F   -0.048110
    37  F   -0.067808
 Sum of Mulliken charges =  -0.00000

 Dipole moment (field-independent basis, Debye):
    X=             -1.3462    Y=              3.1142    Z=             -4.4974  Tot=              5.6336
 Quadrupole moment (field-independent basis, Debye-Ang):
   XX=           -148.2092   YY=           -120.9740   ZZ=           -142.2947
   XY=             -4.4350   XZ=            -16.8279   YZ=              3.5983

 ESP charges:
               1
     1  C    0.357621
     2  C   -0.030804
     3  O   -0.303201
     4  C    0.074949
     5  C    0.023658
     6  C   -0.246456
     7  C    0.349711
     8  C   -0.101559
     9  H    0.148434
    10  C   -0.267807
    11  H    0.118948
    12  H    0.151672
    13  C   -0.089505
    14  H    0.140040
    15  C   -0.151421
    16  H    0.126526
    17  C   -0.067941
    18  C   -0.248533
    19  H    0.124381
    20  B    0.141086
    21  N   -0.378634
    22  C    0.003673
    23  H    0.018491
    24  H    0.078331
    25  H    0.097223
    26  C   -0.087379
    27  H    0.093033
    28  H    0.060765
    29  H    0.062641
    30  C    0.754148
    31  C    0.771732
    32  F   -0.283322
    33  F   -0.278472
    34  F   -0.303424
    35  F   -0.287392
    36  F   -0.285616
    37  F   -0.285595
 Sum of ESP charges =   0.00000

 Normal termination of Gaussian 16 at Thu Apr 11 15:44:55 2024.
