 Gaussian 16, Revision C.02,
 Gaussian 16:  AS64L-G16RevC.02  7-Dec-2021

 ----------------------------------------------------------------------
 # wb97xd/genecp scrf=(solvent=toluene,pcm) nosymm pop=(chelpg) scfcyc=
 300
 ----------------------------------------------------------------------

 -------------------------
 cl_benzopiperidine_chelpg
 -------------------------
 Symbolic Z-matrix:
 Charge =  0 Multiplicity = 1

                          Input orientation:
 ---------------------------------------------------------------------
 Center     Atomic      Atomic             Coordinates (Angstroms)
 Number     Number       Type             X           Y           Z
 ---------------------------------------------------------------------
      1          6           0       -0.595808    0.940839    0.669728
      2          6           0        0.781201    1.066388    0.778403
      3          6           0        1.465696    2.179406    0.268563
      4          6           0        0.715064    3.240518   -0.297328
      5          6           0       -0.674196    3.101774   -0.402349
      6          6           0       -1.315345    1.960916    0.061571
      7          1           0       -1.097531    0.059283    1.050084
      8          1           0        1.348058    0.263298    1.237323
      9          1           0       -1.268288    3.901209   -0.825348
     10          1           0       -2.393473    1.885136   -0.031138
     11          5           0        3.007353    2.082249    0.214682
     12          6           0        0.660227    5.288596   -1.636395
     13          6           0        2.121642    5.143212    0.292861
     14          6           0        1.638132    6.228122   -2.336831
     15          6           0        3.137078    6.085306   -0.339844
     16          6           0        2.452658    7.030334   -1.325162
     17          1           0        1.077781    6.893785   -2.999593
     18          1           0        2.310717    5.630435   -2.961374
     19          1           0        3.642042    6.647100    0.451133
     20          1           0        3.895326    5.492206   -0.860896
     21          1           0        3.190978    7.655219   -1.834668
     22          1           0        1.785071    7.706690   -0.775978
     23          7           0        1.370739    4.401611   -0.725255
     24          1           0        2.621969    4.442953    0.963229
     25          1           0        1.417702    5.725395    0.914854
     26          1           0       -0.098993    5.887196   -1.100284
     27          1           0        0.140265    4.680662   -2.379144
     28         17           0        3.959107    2.502904   -1.212165
     29         17           0        3.919570    1.401135    1.574540
 ---------------------------------------------------------------------

 SCF Done:  E(RwB97XD) =  -1427.68613540     A.U. after   16 cycles

 Alpha  occ. eigenvalues -- -101.72291-101.72026 -14.44487 -10.34023 -10.31725
 Alpha  occ. eigenvalues --  -10.31342 -10.30227 -10.30065 -10.29102 -10.28858
 Alpha  occ. eigenvalues --  -10.28774 -10.28062 -10.28007 -10.27979  -9.59339
 Alpha  occ. eigenvalues --   -9.59092  -7.33990  -7.33752  -7.33480  -7.33293
 Alpha  occ. eigenvalues --   -7.33226  -7.33035  -6.95476  -1.05887  -0.96882
 Alpha  occ. eigenvalues --   -0.95690  -0.92358  -0.90733  -0.86780  -0.85481
 Alpha  occ. eigenvalues --   -0.84261  -0.75641  -0.73868  -0.70371  -0.69490
 Alpha  occ. eigenvalues --   -0.65392  -0.63815  -0.59781  -0.57360  -0.57224
 Alpha  occ. eigenvalues --   -0.55555  -0.54834  -0.53055  -0.52423  -0.51356
 Alpha  occ. eigenvalues --   -0.50793  -0.50736  -0.49838  -0.48089  -0.46432
 Alpha  occ. eigenvalues --   -0.45499  -0.44944  -0.44255  -0.43334  -0.41845
 Alpha  occ. eigenvalues --   -0.41226  -0.40685  -0.40497  -0.39983  -0.39508
 Alpha  occ. eigenvalues --   -0.36102  -0.34124  -0.28583
 Alpha virt. eigenvalues --   -0.00245   0.03958   0.04736   0.05129   0.05154
 Alpha virt. eigenvalues --    0.05594   0.06330   0.06357   0.06998   0.07495
 Alpha virt. eigenvalues --    0.07700   0.08154   0.08592   0.08695   0.09701

 Mulliken charges:
               1
     1  C   -0.574074
     2  C    0.017184
     3  C    0.533708
     4  C   -0.432579
     5  C    0.080586
     6  C   -0.374717
     7  H    0.222964
     8  H    0.228109
     9  H    0.195280
    10  H    0.237996
    11  B   -0.632255
    12  C   -0.142003
    13  C   -0.526135
    14  C   -0.600905
    15  C   -0.299322
    16  C   -0.332819
    17  H    0.194599
    18  H    0.173237
    19  H    0.198631
    20  H    0.110710
    21  H    0.200036
    22  H    0.150158
    23  N    0.399632
    24  H    0.241038
    25  H    0.203085
    26  H    0.170462
    27  H    0.182424
    28  Cl   0.074796
    29  Cl   0.100174
 Sum of Mulliken charges =  -0.00000

 Dipole moment (field-independent basis, Debye):
    X=             -2.4451    Y=              2.1513    Z=             -0.4320  Tot=              3.2853
 Quadrupole moment (field-independent basis, Debye-Ang):
   XX=           -110.6362   YY=            -82.5386   ZZ=           -105.2688
   XY=             -0.3848   XZ=              0.6569   YZ=             -4.9493

 ESP charges:
               1
     1  C   -0.184519
     2  C   -0.051964
     3  C   -0.205206
     4  C    0.334945
     5  C   -0.191056
     6  C   -0.074158
     7  H    0.122896
     8  H    0.096328
     9  H    0.104401
    10  H    0.115315
    11  B    0.410743
    12  C    0.216410
    13  C    0.324597
    14  C   -0.156915
    15  C   -0.102875
    16  C    0.086530
    17  H    0.029129
    18  H    0.070526
    19  H    0.013674
    20  H    0.056074
    21  H   -0.005214
    22  H   -0.005245
    23  N   -0.539049
    24  H   -0.049186
    25  H   -0.038876
    26  H    0.009819
    27  H    0.010476
    28  Cl  -0.201365
    29  Cl  -0.196234
 Sum of ESP charges =  -0.00000

 Normal termination of Gaussian 16 at Thu Apr 11 15:16:08 2024.
