 Gaussian 16, Revision C.02,
 Gaussian 16:  AS64L-G16RevC.02  7-Dec-2021

 ----------------------------------------------------------------------
 # wb97xd/genecp scrf=(solvent=toluene,pcm) nosymm pop=(chelpg) scfcyc=
 300
 ----------------------------------------------------------------------

 ---------------------
 cl_biphenylene_chelpg
 ---------------------
 Symbolic Z-matrix:
 Charge =  0 Multiplicity = 1

                          Input orientation:
 ---------------------------------------------------------------------
 Center     Atomic      Atomic             Coordinates (Angstroms)
 Number     Number       Type             X           Y           Z
 ---------------------------------------------------------------------
      1          6           0        1.916460    2.486067   -0.156483
      2          6           0        1.851872    2.547740   -1.572597
      3          6           0        1.575531    4.024035   -1.489844
      4          6           0        1.566310    3.948097   -0.078984
      5          6           0        1.402950    5.187022   -2.185818
      6          6           0        1.266703    5.039170    0.721087
      7          6           0        1.183738    6.325144   -1.380229
      8          1           0        1.428653    5.252845   -3.265909
      9          6           0        1.107726    6.258107   -0.000771
     10          1           0        1.040859    7.289657   -1.855507
     11          1           0        0.893348    7.169888    0.541719
     12          6           0        2.037855    1.457592   -2.366660
     13          1           0        1.994063    1.495615   -3.448562
     14          6           0        2.297746    0.237080   -1.688343
     15          1           0        2.441321   -0.668527   -2.266540
     16          6           0        2.391920    0.177729   -0.316877
     17          6           0        2.239420    1.329921    0.523677
     18          1           0        2.617547   -0.775871    0.147699
     19          5           0        2.573470    1.248885    2.025960
     20          7           0        1.119881    4.954483    2.099748
     21          6           0        0.987290    6.182386    2.856621
     22          1           0        0.017703    6.681416    2.699997
     23          1           0        1.077938    5.945436    3.918236
     24          1           0        1.788391    6.877084    2.599627
     25          6           0        0.267568    3.885167    2.595753
     26          1           0        0.521308    3.660186    3.633752
     27          1           0       -0.795453    4.165341    2.544331
     28          1           0        0.398930    2.977539    2.007903
     29         17           0        3.365783    2.583399    2.858323
     30         17           0        2.272522   -0.221546    2.960603
 ---------------------------------------------------------------------

 SCF Done:  E(RwB97XD) =  -1540.70165775     A.U. after   18 cycles

 Alpha  occ. eigenvalues -- -101.72535-101.72289 -14.45362 -10.34200 -10.32285
 Alpha  occ. eigenvalues --  -10.31262 -10.31176 -10.31005 -10.30969 -10.30433
 Alpha  occ. eigenvalues --  -10.30255 -10.30249 -10.30041 -10.29759 -10.29643
 Alpha  occ. eigenvalues --  -10.29409 -10.29266  -9.59581  -9.59358  -7.34232
 Alpha  occ. eigenvalues --   -7.34011  -7.33718  -7.33538  -7.33494  -7.33303
 Alpha  occ. eigenvalues --   -6.95494  -1.06085  -1.01760  -0.96701  -0.95177
 Alpha  occ. eigenvalues --   -0.92715  -0.91019  -0.86930  -0.85488  -0.82671
 Alpha  occ. eigenvalues --   -0.80961  -0.77290  -0.73345  -0.72179  -0.67548
 Alpha  occ. eigenvalues --   -0.66419  -0.63419  -0.59427  -0.58868  -0.58145
 Alpha  occ. eigenvalues --   -0.56746  -0.56284  -0.55230  -0.54282  -0.52678
 Alpha  occ. eigenvalues --   -0.51754  -0.51472  -0.50040  -0.49439  -0.48933
 Alpha  occ. eigenvalues --   -0.48368  -0.47378  -0.46250  -0.45954  -0.44824
 Alpha  occ. eigenvalues --   -0.43922  -0.43371  -0.42357  -0.41272  -0.40078
 Alpha  occ. eigenvalues --   -0.39871  -0.38370  -0.37587  -0.34806  -0.29398
 Alpha  occ. eigenvalues --   -0.27441
 Alpha virt. eigenvalues --   -0.01609   0.00553   0.03813   0.04461   0.04791
 Alpha virt. eigenvalues --    0.04893   0.05982   0.06140   0.06305   0.07415
 Alpha virt. eigenvalues --    0.07841   0.08059   0.08160   0.08709   0.09602

 Mulliken charges:
               1
     1  C    0.267454
     2  C    0.491518
     3  C   -0.085845
     4  C   -0.532508
     5  C   -0.320427
     6  C   -0.009028
     7  C   -0.331146
     8  H    0.196751
     9  C   -0.247619
    10  H    0.238619
    11  H    0.196885
    12  C   -0.270626
    13  H    0.221009
    14  C   -0.449154
    15  H    0.243370
    16  C   -0.333944
    17  C    0.546553
    18  H    0.211351
    19  B   -0.578756
    20  N    0.240041
    21  C   -0.403732
    22  H    0.165640
    23  H    0.179151
    24  H    0.168022
    25  C   -0.519487
    26  H    0.199053
    27  H    0.184816
    28  H    0.133446
    29  Cl   0.085917
    30  Cl   0.112677
 Sum of Mulliken charges =  -0.00000

 Dipole moment (field-independent basis, Debye):
    X=             -1.5672    Y=              1.9976    Z=             -0.9965  Tot=              2.7276
 Quadrupole moment (field-independent basis, Debye-Ang):
   XX=           -128.4222   YY=            -96.0586   ZZ=           -110.9808
   XY=             -5.1132   XZ=             -7.4553   YZ=              5.9459

 ESP charges:
               1
     1  C    0.102138
     2  C    0.031392
     3  C    0.100734
     4  C   -0.173996
     5  C   -0.229691
     6  C    0.226033
     7  C   -0.063111
     8  H    0.135558
     9  C   -0.220351
    10  H    0.106494
    11  H    0.125780
    12  C   -0.145243
    13  H    0.127979
    14  C   -0.104035
    15  H    0.108669
    16  C   -0.140666
    17  C   -0.131097
    18  H    0.103561
    19  B    0.441616
    20  N   -0.173952
    21  C   -0.204489
    22  H    0.074872
    23  H    0.111594
    24  H    0.091441
    25  C    0.195775
    26  H    0.011971
    27  H   -0.025848
    28  H   -0.045671
    29  Cl  -0.234245
    30  Cl  -0.203213
 Sum of ESP charges =  -0.00000

 Normal termination of Gaussian 16 at Thu Apr 11 15:29:05 2024.
