 Gaussian 16, Revision C.02,
 Gaussian 16:  AS64L-G16RevC.02  7-Dec-2021

 ----------------------------------------------------------------------
 # wb97xd/genecp scrf=(solvent=toluene,pcm) nosymm pop=(chelpg) scfcyc=
 300
 ----------------------------------------------------------------------

 ----------------
 cl_indole_chelpg
 ----------------
 Symbolic Z-matrix:
 Charge =  0 Multiplicity = 1

                          Input orientation:
 ---------------------------------------------------------------------
 Center     Atomic      Atomic             Coordinates (Angstroms)
 Number     Number       Type             X           Y           Z
 ---------------------------------------------------------------------
      1          6           0       -1.098610   -1.233073   -0.147789
      2          6           0       -2.482100   -1.266316   -0.054394
      3          6           0       -1.818723    0.897376   -0.145005
      4          6           0       -1.941214    2.298774   -0.165665
      5          6           0       -3.202295    2.851602   -0.092500
      6          6           0       -4.345866    2.013051    0.001878
      7          6           0       -4.237103    0.645911    0.023675
      8          6           0       -2.956248    0.064291   -0.050462
      9          1           0       -1.073375    2.944218   -0.235343
     10          1           0       -5.325228    2.477138    0.058080
     11          1           0       -5.118894    0.018948    0.096398
     12          7           0       -0.705404    0.108177   -0.204028
     13          1           0       -3.076879   -2.164725    0.005794
     14          5           0       -0.220392   -2.477414   -0.168052
     15          6           0        0.650415    0.613396   -0.313081
     16          1           0        1.243427    0.331754    0.557904
     17          1           0        1.134295    0.234494   -1.213622
     18          1           0        0.617971    1.698991   -0.372478
     19          6           0       -3.393397    4.345071   -0.110494
     20          1           0       -3.899287    4.682712    0.798663
     21          1           0       -2.439792    4.870884   -0.183735
     22          1           0       -4.014252    4.646557   -0.959133
     23         17           0        1.548395   -2.476127   -0.249644
     24         17           0       -0.975940   -4.080716   -0.101883
 ---------------------------------------------------------------------

 SCF Done:  E(RwB97XD) =  -1387.17470645     A.U. after   16 cycles

 Alpha  occ. eigenvalues -- -101.72546-101.72075 -14.49346 -10.33243 -10.32601
 Alpha  occ. eigenvalues --  -10.31571 -10.30752 -10.29761 -10.29647 -10.29408
 Alpha  occ. eigenvalues --  -10.29192 -10.28656 -10.28303  -9.59606  -9.59122
 Alpha  occ. eigenvalues --   -7.34262  -7.33786  -7.33731  -7.33564  -7.33236
 Alpha  occ. eigenvalues --   -7.33089  -6.95311  -1.10393  -0.96664  -0.96210
 Alpha  occ. eigenvalues --   -0.92776  -0.91665  -0.86159  -0.85776  -0.79899
 Alpha  occ. eigenvalues --   -0.78516  -0.71804  -0.68947  -0.67043  -0.62805
 Alpha  occ. eigenvalues --   -0.59514  -0.58214  -0.56623  -0.55519  -0.54066
 Alpha  occ. eigenvalues --   -0.52678  -0.51882  -0.51420  -0.50303  -0.48807
 Alpha  occ. eigenvalues --   -0.48456  -0.47836  -0.46958  -0.46354  -0.44713
 Alpha  occ. eigenvalues --   -0.42732  -0.41739  -0.41208  -0.41195  -0.39447
 Alpha  occ. eigenvalues --   -0.37179  -0.30679  -0.29247
 Alpha virt. eigenvalues --   -0.01581   0.03850   0.04823   0.04962   0.06020
 Alpha virt. eigenvalues --    0.06491   0.06565   0.06685   0.07575   0.07860
 Alpha virt. eigenvalues --    0.08633   0.08844   0.08983   0.09681   0.10316

 Mulliken charges:
               1
     1  C   -0.103504
     2  C    0.728751
     3  C   -1.781211
     4  C   -1.263547
     5  C    0.399716
     6  C   -0.379627
     7  C   -0.303990
     8  C    1.434584
     9  H    0.149251
    10  H    0.208027
    11  H    0.210395
    12  N    0.263903
    13  H    0.204660
    14  B    0.003744
    15  C   -0.389269
    16  H    0.185502
    17  H    0.176190
    18  H    0.159347
    19  C   -0.445180
    20  H    0.186116
    21  H    0.181408
    22  H    0.186335
    23  Cl   0.009881
    24  Cl  -0.021483
 Sum of Mulliken charges =  -0.00000

 Dipole moment (field-independent basis, Debye):
    X=             -0.1932    Y=              3.8104    Z=             -0.0901  Tot=              3.8163
 Quadrupole moment (field-independent basis, Debye-Ang):
   XX=            -88.8881   YY=            -96.8572   ZZ=            -99.2657
   XY=             -0.8428   XZ=             -0.7111   YZ=             -0.9119

 ESP charges:
               1
     1  C   -0.005427
     2  C   -0.402191
     3  C    0.158119
     4  C   -0.361388
     5  C    0.225451
     6  C   -0.231899
     7  C   -0.229457
     8  C    0.208837
     9  H    0.177578
    10  H    0.137336
    11  H    0.151201
    12  N   -0.148664
    13  H    0.198164
    14  B    0.378976
    15  C    0.027565
    16  H    0.048168
    17  H    0.048951
    18  H    0.051610
    19  C   -0.284178
    20  H    0.085250
    21  H    0.085512
    22  H    0.084834
    23  Cl  -0.186800
    24  Cl  -0.217548
 Sum of ESP charges =   0.00000

 Normal termination of Gaussian 16 at Thu Apr 11 15:53:26 2024.
