 Gaussian 16, Revision C.02,
 Gaussian 16:  AS64L-G16RevC.02  7-Dec-2021

 ----------------------------------------------------------------------
 # wb97xd/genecp scrf=(solvent=toluene,pcm) nosymm pop=(chelpg) scfcyc=
 300
 ----------------------------------------------------------------------

 --------------------
 cl_metriazole_chelpg
 --------------------
 Symbolic Z-matrix:
 Charge =  0 Multiplicity = 1

                          Input orientation:
 ---------------------------------------------------------------------
 Center     Atomic      Atomic             Coordinates (Angstroms)
 Number     Number       Type             X           Y           Z
 ---------------------------------------------------------------------
      1          6           0        2.606080    1.650137    1.157365
      2          1           0        2.667070    2.195583    2.084735
      3          6           0        3.140991    0.437735    0.757930
      4          7           0        1.918636    2.093735    0.100756
      5          7           0        2.009031    1.218253   -0.923127
      6          7           0        2.733251    0.230895   -0.537246
      7          5           0        4.017521   -0.536866    1.545165
      8          6           0        1.190059    3.338728   -0.064616
      9          1           0        1.853715    4.114288   -0.447970
     10          1           0        0.380650    3.166525   -0.770874
     11          1           0        0.780905    3.641663    0.897630
     12         17           0        4.470243   -0.160493    3.211721
     13         17           0        4.597378   -2.032688    0.840708
 ---------------------------------------------------------------------

 SCF Done:  E(RwB97XD) =  -1226.28876053     A.U. after   15 cycles

 Alpha  occ. eigenvalues -- -101.73033-101.72623 -14.54917 -14.51024 -14.47650
 Alpha  occ. eigenvalues --  -10.35702 -10.34698 -10.31699  -9.60073  -9.59665
 Alpha  occ. eigenvalues --   -7.34729  -7.34330  -7.34196  -7.34039  -7.33801
 Alpha  occ. eigenvalues --   -7.33608  -6.96026  -1.23194  -1.04611  -0.97038
 Alpha  occ. eigenvalues --   -0.93172  -0.92662  -0.85539  -0.75284  -0.70887
 Alpha  occ. eigenvalues --   -0.65432  -0.60803  -0.60222  -0.56101  -0.53708
 Alpha  occ. eigenvalues --   -0.52619  -0.51798  -0.50547  -0.46865  -0.44839
 Alpha  occ. eigenvalues --   -0.41785  -0.41478  -0.40163  -0.39709  -0.37413
 Alpha  occ. eigenvalues --   -0.36400
 Alpha virt. eigenvalues --   -0.00560   0.03596   0.04206   0.05422   0.06417
 Alpha virt. eigenvalues --    0.07288   0.07846   0.08223   0.08707   0.09661
 Alpha virt. eigenvalues --    0.11408   0.12530   0.13104   0.13243   0.14572

 Mulliken charges:
               1
     1  C   -0.381825
     2  H    0.235333
     3  C   -0.276825
     4  N    0.211167
     5  N   -0.004993
     6  N   -0.120945
     7  B    0.053546
     8  C   -0.366925
     9  H    0.221565
    10  H    0.210237
    11  H    0.185263
    12  Cl  -0.018259
    13  Cl   0.052661
 Sum of Mulliken charges =  -0.00000

 Dipole moment (field-independent basis, Debye):
    X=             -2.3301    Y=              5.7101    Z=              2.1951  Tot=              6.5462
 Quadrupole moment (field-independent basis, Debye-Ang):
   XX=            -77.4968   YY=            -49.8324   ZZ=            -69.6011
   XY=             10.9240   XZ=              2.2318   YZ=              4.6949

 ESP charges:
               1
     1  C   -0.418963
     2  H    0.194794
     3  C    0.309020
     4  N    0.625699
     5  N   -0.326985
     6  N   -0.352660
     7  B    0.264953
     8  C   -0.451100
     9  H    0.166389
    10  H    0.144584
    11  H    0.174474
    12  Cl  -0.170450
    13  Cl  -0.159756
 Sum of ESP charges =   0.00000

 Normal termination of Gaussian 16 at Mon Apr  8 17:41:14 2024.
