 Gaussian 16, Revision C.02,
 Gaussian 16:  AS64L-G16RevC.02  7-Dec-2021

 ----------------------------------------------------------------------
 # wb97xd/genecp scrf=(solvent=toluene,pcm) nosymm pop=(chelpg) scfcyc=
 300
 ----------------------------------------------------------------------

 ----------------------
 cl_nmeimidazole_chelpg
 ----------------------
 Symbolic Z-matrix:
 Charge =  0 Multiplicity = 1

                          Input orientation:
 ---------------------------------------------------------------------
 Center     Atomic      Atomic             Coordinates (Angstroms)
 Number     Number       Type             X           Y           Z
 ---------------------------------------------------------------------
      1          6           0        2.650740    1.587238    1.095268
      2          1           0        2.664396    2.117887    2.034361
      3          6           0        3.200207    0.373629    0.725185
      4          7           0        2.021703    2.080044    0.000392
      5          7           0        2.896993    0.133486   -0.608847
      6          5           0        4.009949   -0.572910    1.601289
      7          6           0        1.288504    3.331396   -0.093030
      8          1           0        0.950868    3.463431   -1.119899
      9          1           0        0.420348    3.311428    0.566693
     10          1           0        1.935443    4.166398    0.176981
     11          6           0        2.201888    1.161452   -0.999424
     12          1           0        1.793388    1.316579   -1.987952
     13         17           0        4.644480   -2.095164    0.990272
     14         17           0        4.343222   -0.162655    3.295003
 ---------------------------------------------------------------------

 SCF Done:  E(RwB97XD) =  -1210.28326975     A.U. after   14 cycles

 Alpha  occ. eigenvalues -- -101.72073-101.71679 -14.51672 -14.43096 -10.35326
 Alpha  occ. eigenvalues --  -10.34413 -10.33831 -10.30286  -9.59112  -9.58720
 Alpha  occ. eigenvalues --   -7.33768  -7.33382  -7.33231  -7.33086  -7.32856
 Alpha  occ. eigenvalues --   -7.32670  -6.94645  -1.14860  -1.00919  -0.95773
 Alpha  occ. eigenvalues --   -0.92140  -0.87396  -0.83054  -0.71910  -0.68906
 Alpha  occ. eigenvalues --   -0.64748  -0.58576  -0.58461  -0.54801  -0.54120
 Alpha  occ. eigenvalues --   -0.51523  -0.50757  -0.49788  -0.49040  -0.45717
 Alpha  occ. eigenvalues --   -0.40913  -0.40819  -0.39317  -0.37407  -0.37326
 Alpha  occ. eigenvalues --   -0.33240
 Alpha virt. eigenvalues --    0.00484   0.03548   0.05391   0.05776   0.05789
 Alpha virt. eigenvalues --    0.07589   0.07828   0.08702   0.09011   0.09136
 Alpha virt. eigenvalues --    0.10181   0.11429   0.12099   0.13256   0.14495

 Mulliken charges:
               1
     1  C   -0.293535
     2  H    0.209544
     3  C   -0.362076
     4  N    0.042815
     5  N   -0.111381
     6  B   -0.002301
     7  C   -0.362513
     8  H    0.169251
     9  H    0.208324
    10  H    0.202238
    11  C    0.048442
    12  H    0.246399
    13  Cl   0.041363
    14  Cl  -0.036570
 Sum of Mulliken charges =  -0.00000

 Dipole moment (field-independent basis, Debye):
    X=             -3.8423    Y=              6.4328    Z=             -0.8441  Tot=              7.5404
 Quadrupole moment (field-independent basis, Debye-Ang):
   XX=            -87.2985   YY=            -52.9272   ZZ=            -68.0918
   XY=             12.9376   XZ=             -3.5216   YZ=              0.7563

 ESP charges:
               1
     1  C   -0.345846
     2  H    0.200651
     3  C    0.241768
     4  N    0.208458
     5  N   -0.627550
     6  B    0.320239
     7  C   -0.344343
     8  H    0.124174
     9  H    0.152145
    10  H    0.153753
    11  C    0.196878
    12  H    0.109980
    13  Cl  -0.174526
    14  Cl  -0.215781
 Sum of ESP charges =  -0.00000

 Normal termination of Gaussian 16 at Thu Apr 11 15:39:56 2024.
