 Gaussian 16, Revision C.02,
 Gaussian 16:  AS64L-G16RevC.02  7-Dec-2021

 ----------------------------------------------------------------------
 # wb97xd/genecp scrf=(solvent=toluene,pcm) nosymm pop=(chelpg) scfcyc=
 300
 ----------------------------------------------------------------------

 ------------------------
 cl_naphtoxanthene_chelpg
 ------------------------
 Symbolic Z-matrix:
 Charge =  0 Multiplicity = 1

                          Input orientation:
 ---------------------------------------------------------------------
 Center     Atomic      Atomic             Coordinates (Angstroms)
 Number     Number       Type             X           Y           Z
 ---------------------------------------------------------------------
      1          6           0       -2.125657    1.608150    1.183284
      2          6           0       -0.912572    1.822768    1.902305
      3          6           0       -0.123931    2.924057    1.722299
      4          6           0       -0.506461    3.925026    0.799635
      5          6           0       -1.715266    3.766532    0.093582
      6          6           0       -2.508499    2.614846    0.295222
      7          1           0       -0.598852    1.065920    2.610911
      8          1           0        0.798708    3.036799    2.279952
      9          6           0       -2.134833    4.756959   -0.837965
     10          8           0       -3.684054    2.482618   -0.361626
     11          6           0       -3.369673    4.567565   -1.520952
     12          6           0       -4.133565    3.425804   -1.249840
     13          6           0       -3.808442    5.516905   -2.467922
     14          6           0       -5.359726    3.200325   -1.870255
     15          6           0       -5.026632    5.275902   -3.122473
     16          6           0       -5.773906    4.158536   -2.821227
     17          1           0       -5.388206    5.984127   -3.859854
     18          1           0       -6.719113    4.011979   -3.328308
     19          5           0       -2.887733    0.283754    1.387357
     20          7           0       -6.111000    2.052364   -1.567473
     21          6           0       -6.598453    1.963932   -0.195551
     22          1           0       -7.432168    2.661583   -0.016903
     23          1           0       -6.948936    0.947244   -0.004890
     24          1           0       -5.799770    2.180110    0.510595
     25          6           0       -7.121119    1.660025   -2.530205
     26          1           0       -7.450174    0.646403   -2.291340
     27          1           0       -8.010470    2.312208   -2.522144
     28          1           0       -6.700630    1.650362   -3.537254
     29          6           0       -2.986082    6.666500   -2.703440
     30          1           0       -3.320856    7.399941   -3.429347
     31          6           0       -1.816113    6.847003   -2.037143
     32          1           0       -1.209646    7.726506   -2.225864
     33          6           0       -1.355766    5.887351   -1.078378
     34          6           0       -0.135576    6.030834   -0.356021
     35          6           0        0.271000    5.093873    0.546519
     36          1           0        0.475209    6.909664   -0.535849
     37          1           0        1.202314    5.223311    1.086861
     38         17           0       -3.984162   -0.439420    0.213953
     39         17           0       -2.627226   -0.669470    2.865073
 ---------------------------------------------------------------------

 SCF Done:  E(RwB97XD) =  -1845.84110133     A.U. after   18 cycles

 Alpha  occ. eigenvalues -- -101.71978-101.71721 -19.32136 -14.44503 -10.38663
 Alpha  occ. eigenvalues --  -10.36536 -10.33505 -10.32022 -10.31852 -10.31804
 Alpha  occ. eigenvalues --  -10.31496 -10.31049 -10.30923 -10.30763 -10.30716
 Alpha  occ. eigenvalues --  -10.30634 -10.30284 -10.30232 -10.30076 -10.30000
 Alpha  occ. eigenvalues --  -10.29903 -10.29611 -10.29482 -10.29453  -9.59031
 Alpha  occ. eigenvalues --   -9.58801  -7.33682  -7.33463  -7.33161  -7.32993
 Alpha  occ. eigenvalues --   -7.32940  -7.32734  -6.95209  -1.22572  -1.05202
 Alpha  occ. eigenvalues --   -1.01201  -0.98865  -0.96116  -0.94489  -0.92326
 Alpha  occ. eigenvalues --   -0.92080  -0.90325  -0.88224  -0.86644  -0.84063
 Alpha  occ. eigenvalues --   -0.81991  -0.81139  -0.76851  -0.76422  -0.74567
 Alpha  occ. eigenvalues --   -0.74026  -0.70368  -0.67262  -0.66865  -0.65276
 Alpha  occ. eigenvalues --   -0.62634  -0.61982  -0.60250  -0.58609  -0.58265
 Alpha  occ. eigenvalues --   -0.57556  -0.57220  -0.55789  -0.55276  -0.54479
 Alpha  occ. eigenvalues --   -0.53519  -0.53003  -0.52051  -0.51739  -0.50280
 Alpha  occ. eigenvalues --   -0.49868  -0.49394  -0.49123  -0.48929  -0.47957
 Alpha  occ. eigenvalues --   -0.47743  -0.46996  -0.46394  -0.45936  -0.45849
 Alpha  occ. eigenvalues --   -0.45393  -0.43093  -0.42559  -0.42406  -0.40890
 Alpha  occ. eigenvalues --   -0.40740  -0.40133  -0.38719  -0.38279  -0.35601
 Alpha  occ. eigenvalues --   -0.35171  -0.32364  -0.29143  -0.26169
 Alpha virt. eigenvalues --   -0.02093   0.00525   0.02448   0.03705   0.03985
 Alpha virt. eigenvalues --    0.04392   0.04719   0.05658   0.05778   0.06212
 Alpha virt. eigenvalues --    0.06720   0.07104   0.07246   0.07484   0.08067

 Mulliken charges:
               1
     1  C    0.270101
     2  C   -0.467256
     3  C   -0.416143
     4  C    0.191339
     5  C    0.104253
     6  C    0.349149
     7  H    0.177035
     8  H    0.207723
     9  C   -0.113734
    10  O    0.031997
    11  C    0.131666
    12  C   -0.330162
    13  C    0.220092
    14  C   -0.514241
    15  C   -0.011767
    16  C   -0.014751
    17  H    0.206415
    18  H    0.210114
    19  B   -0.210497
    20  N    0.168450
    21  C   -0.441147
    22  H    0.158414
    23  H    0.162715
    24  H    0.209393
    25  C   -0.371241
    26  H    0.187983
    27  H    0.146189
    28  H    0.173260
    29  C   -0.441112
    30  H    0.187682
    31  C   -0.519420
    32  H    0.196739
    33  C    0.400497
    34  C   -0.345287
    35  C   -0.396263
    36  H    0.203304
    37  H    0.196604
    38  Cl   0.074340
    39  Cl   0.027568
 Sum of Mulliken charges =  -0.00000

 Dipole moment (field-independent basis, Debye):
    X=             -0.2293    Y=              3.6735    Z=             -1.6714  Tot=              4.0424
 Quadrupole moment (field-independent basis, Debye-Ang):
   XX=           -135.7238   YY=           -136.0446   ZZ=           -154.1844
   XY=             -5.3243   XZ=             15.9496   YZ=             -7.7793

 ESP charges:
               1
     1  C   -0.320375
     2  C   -0.034042
     3  C   -0.310121
     4  C    0.242619
     5  C   -0.120206
     6  C    0.410385
     7  H    0.111345
     8  H    0.150486
     9  C    0.023962
    10  O   -0.305677
    11  C   -0.030744
    12  C    0.125032
    13  C    0.153711
    14  C    0.119123
    15  C   -0.326573
    16  C   -0.087212
    17  H    0.158093
    18  H    0.132803
    19  B    0.500231
    20  N   -0.183402
    21  C    0.025916
    22  H   -0.009394
    23  H    0.067740
    24  H    0.038969
    25  C   -0.195237
    26  H    0.119010
    27  H    0.070535
    28  H    0.070675
    29  C   -0.151704
    30  H    0.127655
    31  C   -0.260598
    32  H    0.146773
    33  C    0.148776
    34  C   -0.143881
    35  C   -0.259374
    36  H    0.129810
    37  H    0.148978
    38  Cl  -0.248044
    39  Cl  -0.236045
 Sum of ESP charges =   0.00000

 Normal termination of Gaussian 16 at Thu Apr 11 15:37:46 2024.
