 Gaussian 16, Revision C.02,
 Gaussian 16:  AS64L-G16RevC.02  7-Dec-2021

 ----------------------------------------------------------------------
 # wb97xd/genecp scrf=(solvent=toluene,pcm) nosymm pop=(chelpg) scfcyc=
 300
 ----------------------------------------------------------------------

 --------------------
 cn_metriazole_chelpg
 --------------------
 Symbolic Z-matrix:
 Charge =  0 Multiplicity = 1

                          Input orientation:
 ---------------------------------------------------------------------
 Center     Atomic      Atomic             Coordinates (Angstroms)
 Number     Number       Type             X           Y           Z
 ---------------------------------------------------------------------
      1          6           0        2.593004    1.628644    1.172944
      2          1           0        2.597790    2.131622    2.126554
      3          6           0        3.167635    0.432772    0.751967
      4          7           0        1.967263    2.108724    0.104638
      5          7           0        2.125466    1.271343   -0.957628
      6          7           0        2.833648    0.280509   -0.578508
      7          5           0        3.995937   -0.552454    1.527981
      8          6           0        1.198505    3.332088   -0.049364
      9          1           0        1.689522    3.978864   -0.775141
     10          1           0        0.195988    3.083734   -0.394021
     11          1           0        1.145432    3.831141    0.915903
     12          6           0        4.550411   -1.837625    0.888500
     13          7           0        4.972179   -2.804018    0.424747
     14          6           0        4.312546   -0.288229    3.015897
     15          7           0        4.529699   -0.059385    4.124046
 ---------------------------------------------------------------------

 SCF Done:  E(RwB97XD) =  -491.461457186     A.U. after   16 cycles

 Alpha  occ. eigenvalues --  -14.56698 -14.52890 -14.49718 -14.46980 -14.46327
 Alpha  occ. eigenvalues --  -10.38047 -10.35755 -10.33641 -10.33610 -10.32980
 Alpha  occ. eigenvalues --   -6.94106  -1.24957  -1.06580  -1.03983  -1.03198
 Alpha  occ. eigenvalues --   -0.94848  -0.86966  -0.78820  -0.74039  -0.72253
 Alpha  occ. eigenvalues --   -0.65601  -0.62726  -0.62282  -0.57603  -0.55636
 Alpha  occ. eigenvalues --   -0.53779  -0.53271  -0.48900  -0.48123  -0.48018
 Alpha  occ. eigenvalues --   -0.46742  -0.45421  -0.44739  -0.44468  -0.41794
 Alpha  occ. eigenvalues --   -0.39055  -0.38376
 Alpha virt. eigenvalues --   -0.07249   0.02685   0.03209   0.05267   0.05384
 Alpha virt. eigenvalues --    0.05970   0.06294   0.07471   0.07874   0.08239
 Alpha virt. eigenvalues --    0.08566   0.09470   0.09686   0.10045   0.10984

 Mulliken charges:
               1
     1  C    0.062922
     2  H    0.279625
     3  C   -0.823315
     4  N    0.199099
     5  N    0.043677
     6  N   -0.047843
     7  B    0.863303
     8  C   -0.378261
     9  H    0.228023
    10  H    0.224795
    11  H    0.190622
    12  C   -0.248030
    13  N   -0.181123
    14  C   -0.185936
    15  N   -0.227559
 Sum of Mulliken charges =  -0.00000

 Dipole moment (field-independent basis, Debye):
    X=             -4.5973    Y=              8.0658    Z=              0.5199  Tot=              9.2986
 Quadrupole moment (field-independent basis, Debye-Ang):
   XX=            -90.5690   YY=            -53.2913   ZZ=            -80.5527
   XY=             22.2628   XZ=             -6.5222   YZ=              3.1681

 ESP charges:
               1
     1  C   -0.344738
     2  H    0.202040
     3  C    0.176045
     4  N    0.671989
     5  N   -0.308714
     6  N   -0.293119
     7  B    0.232357
     8  C   -0.610305
     9  H    0.201266
    10  H    0.198655
    11  H    0.218950
    12  C    0.251682
    13  N   -0.423956
    14  C    0.251116
    15  N   -0.423267
 Sum of ESP charges =  -0.00000

 1\1\GINC-IRENE4129\SP\RwB97XD\GenECP\C5H4B1N5\PENASFRA\08-Apr-2024\0\\
 # wb97xd/genecp scrf=(solvent=toluene,pcm) nosymm pop=(chelpg) scfcyc=
 300\\cn_metriazole_chelpg\\0,1\C,0,2.593004,1.628644,1.172944\H,0,2.59
 779,2.131622,2.126554\C,0,3.167635,0.432772,0.751967\N,0,1.967263,2.10
 8724,0.104638\N,0,2.125466,1.271343,-0.957628\N,0,2.833648,0.280509,-0
 .578508\B,0,3.995937,-0.552454,1.527981\C,0,1.198505,3.332088,-0.04936
 4\H,0,1.689522,3.978864,-0.775141\H,0,0.195988,3.083734,-0.394021\H,0,
 1.145432,3.831141,0.915903\C,0,4.550411,-1.837625,0.8885\N,0,4.972179,

 Normal termination of Gaussian 16 at Mon Apr  8 16:51:35 2024.
