 Gaussian 16, Revision C.02,
 Gaussian 16:  AS64L-G16RevC.02  7-Dec-2021

 ----------------------------------------------------------------------
 # wb97xd/genecp scrf=(solvent=toluene,pcm) nosymm pop=(chelpg) scfcyc=
 300
 ----------------------------------------------------------------------

 ----------------------
 cooh_metriazole_chelpg
 ----------------------
 Symbolic Z-matrix:
 Charge =  0 Multiplicity = 1

                          Input orientation:
 ---------------------------------------------------------------------
 Center     Atomic      Atomic             Coordinates (Angstroms)
 Number     Number       Type             X           Y           Z
 ---------------------------------------------------------------------
      1          6           0        2.630734    1.643256    1.170083
      2          1           0        2.659325    2.177005    2.105881
      3          6           0        3.186824    0.433020    0.778639
      4          7           0        1.968655    2.086097    0.102753
      5          7           0        2.087350    1.211516   -0.927400
      6          7           0        2.806693    0.230491   -0.530809
      7          5           0        4.022063   -0.547700    1.570143
      8          6           0        1.180326    3.294341   -0.062008
      9          1           0        1.561475    3.859108   -0.911477
     10          1           0        0.137653    3.028996   -0.232817
     11          1           0        1.265541    3.889545    0.844890
     12          6           0        4.380409   -0.235102    3.093376
     13          8           0        3.532669   -0.034835    3.933093
     14          8           0        5.690192   -0.227068    3.371636
     15          1           0        5.802008   -0.031415    4.313105
     16          6           0        4.566896   -1.881540    0.903503
     17          8           0        5.631786   -1.899611    0.334352
     18          8           0        3.782671   -2.958165    1.030990
     19          1           0        4.209826   -3.702588    0.582782
 ---------------------------------------------------------------------

 SCF Done:  E(RwB97XD) =  -684.124501411     A.U. after   16 cycles

 Alpha  occ. eigenvalues --  -19.31305 -19.30771 -19.26092 -19.25417 -14.55292
 Alpha  occ. eigenvalues --  -14.51403 -14.48176 -10.42551 -10.41878 -10.36306
 Alpha  occ. eigenvalues --  -10.34900 -10.31826  -6.89690  -1.23521  -1.23320
 Alpha  occ. eigenvalues --   -1.22658  -1.14123  -1.13568  -1.05067  -0.93323
 Alpha  occ. eigenvalues --   -0.85856  -0.79273  -0.75366  -0.74801  -0.71182
 Alpha  occ. eigenvalues --   -0.66415  -0.63027  -0.61065  -0.60257  -0.59360
 Alpha  occ. eigenvalues --   -0.58997  -0.56816  -0.55777  -0.54676  -0.53491
 Alpha  occ. eigenvalues --   -0.52607  -0.52080  -0.48969  -0.48024  -0.44224
 Alpha  occ. eigenvalues --   -0.42997  -0.42288  -0.40318  -0.38683  -0.38224
 Alpha  occ. eigenvalues --   -0.37687  -0.35749
 Alpha virt. eigenvalues --   -0.02434   0.03595   0.03729   0.04735   0.05034
 Alpha virt. eigenvalues --    0.05535   0.06484   0.07352   0.07482   0.07748
 Alpha virt. eigenvalues --    0.08809   0.09747   0.10185   0.10971   0.11517

 Mulliken charges:
               1
     1  C   -0.282844
     2  H    0.278003
     3  C   -0.535330
     4  N    0.187665
     5  N    0.037337
     6  N   -0.045196
     7  B    0.673899
     8  C   -0.371720
     9  H    0.219236
    10  H    0.224524
    11  H    0.186536
    12  C   -0.177037
    13  O   -0.283150
    14  O   -0.119629
    15  H    0.310835
    16  C   -0.256183
    17  O   -0.231699
    18  O   -0.118892
    19  H    0.303646
 Sum of Mulliken charges =  -0.00000

 Dipole moment (field-independent basis, Debye):
    X=             -2.1839    Y=              4.7879    Z=              2.4807  Tot=              5.8178
 Quadrupole moment (field-independent basis, Debye-Ang):
   XX=            -89.2839   YY=            -48.8653   ZZ=            -75.9899
   XY=              8.0787   XZ=             14.8377   YZ=              4.4654

 ESP charges:
               1
     1  C   -0.389145
     2  H    0.202583
     3  C    0.194183
     4  N    0.696946
     5  N   -0.349237
     6  N   -0.292102
     7  B    0.132182
     8  C   -0.609310
     9  H    0.191049
    10  H    0.200685
    11  H    0.214908
    12  C    0.694628
    13  O   -0.595506
    14  O   -0.654360
    15  H    0.466595
    16  C    0.657404
    17  O   -0.580082
    18  O   -0.649698
    19  H    0.468279
 Sum of ESP charges =   0.00000

 Normal termination of Gaussian 16 at Mon Apr  8 17:10:11 2024.
