 Gaussian 16, Revision C.02,
 Gaussian 16:  AS64L-G16RevC.02  7-Dec-2021

 ----------------------------------------------------------------------
 # wb97xd/genecp scrf=(solvent=toluene,pcm) nosymm pop=(chelpg) scfcyc=
 300
 ----------------------------------------------------------------------

 ------------------------
 cyclo_biphenylene_chelpg
 ------------------------
 Symbolic Z-matrix:
 Charge =  0 Multiplicity = 1

                          Input orientation:
 ---------------------------------------------------------------------
 Center     Atomic      Atomic             Coordinates (Angstroms)
 Number     Number       Type             X           Y           Z
 ---------------------------------------------------------------------
      1          6           0        1.943331    2.444959   -0.385429
      2          6           0        1.690245    2.535054   -1.776373
      3          6           0        1.222071    3.957528   -1.596891
      4          6           0        1.422484    3.849583   -0.203715
      5          6           0        0.791117    5.104270   -2.204900
      6          6           0        1.117603    4.871635    0.672873
      7          6           0        0.534775    6.180277   -1.327684
      8          1           0        0.651740    5.202332   -3.274187
      9          6           0        0.679017    6.071249    0.044702
     10          1           0        0.191083    7.124784   -1.735626
     11          1           0        0.431043    6.930975    0.654523
     12          6           0        1.936324    1.501678   -2.632047
     13          1           0        1.758071    1.552725   -3.699702
     14          6           0        2.451318    0.324633   -2.031805
     15          1           0        2.656619   -0.538403   -2.655874
     16          6           0        2.706619    0.249091   -0.676361
     17          6           0        2.490218    1.338916    0.223498
     18          1           0        3.114009   -0.677166   -0.281791
     19          5           0        2.956871    1.268071    1.719434
     20          7           0        1.231287    4.726300    2.061581
     21          6           0        1.097301    5.915501    2.878975
     22          1           0        0.067189    6.305706    2.907516
     23          1           0        1.393206    5.669489    3.900846
     24          1           0        1.762131    6.701094    2.516458
     25          6           0        0.537047    3.577276    2.625416
     26          1           0        0.943543    3.351851    3.614600
     27          1           0       -0.543608    3.762322    2.721597
     28          1           0        0.671173    2.698706    1.994682
     29          6           0        3.813735    2.445570    2.305544
     30          1           0        4.566396    2.768489    1.576185
     31          6           0        2.512110    0.078275    2.644944
     32          1           0        2.480620   -0.877430    2.108174
     33          6           0        3.269080   -0.034333    3.975399
     34          1           0        2.713709   -0.658485    4.682995
     35          1           0        4.228614   -0.539154    3.807138
     36          6           0        4.442505    2.190041    3.684142
     37          1           0        5.395548    1.661758    3.556277
     38          1           0        4.684052    3.137311    4.177404
     39          6           0        3.547016    1.340309    4.589031
     40          1           0        4.017069    1.221863    5.570604
     41          1           0        2.594572    1.861384    4.759887
     42          1           0        3.123347    3.306000    2.353673
     43          1           0        1.449964    0.301963    2.850220
 ---------------------------------------------------------------------

 SCF Done:  E(RwB97XD) =  -816.763415866     A.U. after   16 cycles

 Alpha  occ. eigenvalues --  -14.45056 -10.33358 -10.31170 -10.31001 -10.30290
 Alpha  occ. eigenvalues --  -10.30243 -10.29942 -10.29479 -10.29419 -10.29288
 Alpha  occ. eigenvalues --  -10.29026 -10.29003 -10.28875 -10.28826 -10.27500
 Alpha  occ. eigenvalues --  -10.27184 -10.27045 -10.26966 -10.25486 -10.24694
 Alpha  occ. eigenvalues --   -6.83814  -1.05603  -1.00678  -0.94543  -0.90605
 Alpha  occ. eigenvalues --   -0.90113  -0.86054  -0.84676  -0.83113  -0.82337
 Alpha  occ. eigenvalues --   -0.80210  -0.78217  -0.76359  -0.72469  -0.71381
 Alpha  occ. eigenvalues --   -0.69607  -0.66539  -0.66233  -0.64356  -0.62125
 Alpha  occ. eigenvalues --   -0.58313  -0.57566  -0.56608  -0.56146  -0.55706
 Alpha  occ. eigenvalues --   -0.55003  -0.54086  -0.53582  -0.51603  -0.51193
 Alpha  occ. eigenvalues --   -0.50655  -0.50265  -0.49143  -0.48490  -0.48077
 Alpha  occ. eigenvalues --   -0.47395  -0.46712  -0.45774  -0.45480  -0.44738
 Alpha  occ. eigenvalues --   -0.44716  -0.43741  -0.42569  -0.41545  -0.41425
 Alpha  occ. eigenvalues --   -0.40983  -0.39723  -0.37689  -0.37011  -0.36381
 Alpha  occ. eigenvalues --   -0.36146  -0.32641  -0.29088  -0.26858
 Alpha virt. eigenvalues --    0.00779   0.02065   0.03682   0.04510   0.04534
 Alpha virt. eigenvalues --    0.05354   0.05634   0.05735   0.05967   0.06617
 Alpha virt. eigenvalues --    0.06996   0.07242   0.07398   0.08115   0.08802

 Mulliken charges:
               1
     1  C    0.189020
     2  C    0.210606
     3  C    0.284103
     4  C   -0.070793
     5  C   -0.501145
     6  C   -0.109282
     7  C   -0.438089
     8  H    0.196860
     9  C   -0.276761
    10  H    0.234700
    11  H    0.193078
    12  C   -0.383231
    13  H    0.218145
    14  C   -0.574549
    15  H    0.232798
    16  C   -0.106169
    17  C    0.382412
    18  H    0.194035
    19  B   -0.450275
    20  N    0.283884
    21  C   -0.382212
    22  H    0.158739
    23  H    0.173752
    24  H    0.180195
    25  C   -0.509641
    26  H    0.181954
    27  H    0.206849
    28  H    0.122888
    29  C   -0.228290
    30  H    0.235673
    31  C   -0.152601
    32  H    0.179269
    33  C   -0.727497
    34  H    0.180846
    35  H    0.154139
    36  C   -0.524456
    37  H    0.161877
    38  H    0.182079
    39  C   -0.132085
    40  H    0.217053
    41  H    0.115003
    42  H    0.267631
    43  H    0.229487
 Sum of Mulliken charges =  -0.00000

 Dipole moment (field-independent basis, Debye):
    X=             -0.8432    Y=              0.8705    Z=              1.4548  Tot=              1.8935
 Quadrupole moment (field-independent basis, Debye-Ang):
   XX=           -132.6761   YY=           -112.3161   ZZ=           -115.0410
   XY=             -6.3778   XZ=              0.7926   YZ=              8.2655

 ESP charges:
               1
     1  C    0.120544
     2  C    0.031760
     3  C    0.101673
     4  C   -0.200095
     5  C   -0.228974
     6  C    0.293829
     7  C   -0.071396
     8  H    0.133256
     9  C   -0.256941
    10  H    0.105684
    11  H    0.130941
    12  C   -0.185039
    13  H    0.127984
    14  C   -0.083205
    15  H    0.097777
    16  C   -0.178503
    17  C   -0.175102
    18  H    0.106379
    19  B    0.476801
    20  N   -0.229752
    21  C   -0.169069
    22  H    0.069311
    23  H    0.090779
    24  H    0.082170
    25  C    0.217492
    26  H    0.019274
    27  H   -0.031893
    28  H   -0.065924
    29  C   -0.125298
    30  H   -0.043552
    31  C   -0.306262
    32  H    0.046671
    33  C    0.141570
    34  H   -0.020192
    35  H   -0.023909
    36  C    0.141665
    37  H   -0.029969
    38  H   -0.025085
    39  C   -0.146552
    40  H    0.011161
    41  H    0.031309
    42  H   -0.028165
    43  H    0.046843
 Sum of ESP charges =  -0.00000

 Normal termination of Gaussian 16 at Thu Apr 11 14:55:29 2024.
