 Gaussian 16, Revision C.02,
 Gaussian 16:  AS64L-G16RevC.02  7-Dec-2021

 ----------------------------------------------------------------------
 # wb97xd/genecp scrf=(solvent=toluene,pcm) nosymm pop=(chelpg) scfcyc=
 300
 ----------------------------------------------------------------------

 -------------------------
 cyclo_dibenzofuran_chelpg
 -------------------------
 Symbolic Z-matrix:
 Charge =  0 Multiplicity = 1

                          Input orientation:
 ---------------------------------------------------------------------
 Center     Atomic      Atomic             Coordinates (Angstroms)
 Number     Number       Type             X           Y           Z
 ---------------------------------------------------------------------
      1          6           0        2.330851    2.277342   -0.042861
      2          6           0        2.133601    2.733820   -1.349424
      3          8           0        1.676350    3.075507    0.852691
      4          6           0        1.295159    3.912164   -1.236494
      5          6           0        1.061276    4.061850    0.128035
      6          6           0        0.716293    4.793654   -2.151007
      7          6           0        0.264212    5.077009    0.676983
      8          6           0       -0.082588    5.800894   -1.641949
      9          1           0        0.879871    4.686616   -3.216493
     10          6           0       -0.298937    5.944404   -0.265120
     11          1           0       -0.553047    6.507865   -2.315957
     12          1           0       -0.924462    6.760003    0.073078
     13          6           0        2.714510    2.040495   -2.407638
     14          1           0        2.583996    2.375854   -3.430400
     15          6           0        3.462179    0.907625   -2.119034
     16          1           0        3.926012    0.349611   -2.924252
     17          6           0        3.620566    0.471440   -0.800585
     18          6           0        3.069837    1.143127    0.301278
     19          1           0        4.212386   -0.420077   -0.624151
     20          5           0        3.316941    0.667386    1.776914
     21          7           0        0.022942    5.155786    2.053409
     22          6           0        1.195908    5.170207    2.921338
     23          1           0        1.721875    6.136613    2.876008
     24          1           0        0.876453    4.998994    3.951496
     25          1           0        1.888128    4.378206    2.646934
     26          6           0       -0.992320    6.096442    2.483481
     27          1           0       -1.194815    5.926426    3.542477
     28          1           0       -0.686580    7.148411    2.360360
     29          1           0       -1.919684    5.933483    1.931489
     30          6           0        3.232667    1.671634    2.987560
     31          1           0        3.535570    2.684754    2.705005
     32          6           0        3.539244   -0.858034    2.095728
     33          1           0        3.993059   -1.421201    1.273830
     34          6           0        4.242472   -1.156923    3.427700
     35          1           0        4.125059   -2.212628    3.693111
     36          1           0        5.320565   -0.986554    3.313923
     37          6           0        3.953852    1.213041    4.263672
     38          1           0        5.032173    1.382282    4.149393
     39          1           0        3.638738    1.820581    5.118409
     40          6           0        3.726257   -0.269541    4.561404
     41          1           0        4.219988   -0.540795    5.500098
     42          1           0        2.652804   -0.452196    4.706954
     43          1           0        2.503538   -1.241144    2.148969
     44          1           0        2.150789    1.757897    3.189734
 ---------------------------------------------------------------------

 SCF Done:  E(RwB97XD) =  -892.059123791     A.U. after   16 cycles

 Alpha  occ. eigenvalues --  -19.31306 -14.44873 -10.35208 -10.34678 -10.33487
 Alpha  occ. eigenvalues --  -10.30749 -10.30303 -10.30166 -10.30045 -10.30009
 Alpha  occ. eigenvalues --  -10.29685 -10.28980 -10.28943 -10.28865 -10.28789
 Alpha  occ. eigenvalues --  -10.27909 -10.27184 -10.27073 -10.26933 -10.25409
 Alpha  occ. eigenvalues --  -10.25083  -6.84081  -1.22176  -1.05230  -0.97137
 Alpha  occ. eigenvalues --   -0.95854  -0.90684  -0.88946  -0.86754  -0.84256
 Alpha  occ. eigenvalues --   -0.83506  -0.83083  -0.81215  -0.78329  -0.76367
 Alpha  occ. eigenvalues --   -0.73335  -0.72103  -0.69676  -0.69117  -0.66813
 Alpha  occ. eigenvalues --   -0.65201  -0.62680  -0.61324  -0.59740  -0.57592
 Alpha  occ. eigenvalues --   -0.56776  -0.56490  -0.55566  -0.54844  -0.54709
 Alpha  occ. eigenvalues --   -0.54237  -0.52975  -0.51341  -0.51113  -0.50965
 Alpha  occ. eigenvalues --   -0.49845  -0.48625  -0.48299  -0.47591  -0.46446
 Alpha  occ. eigenvalues --   -0.46148  -0.45709  -0.45343  -0.44964  -0.44892
 Alpha  occ. eigenvalues --   -0.44603  -0.43679  -0.43135  -0.41635  -0.41273
 Alpha  occ. eigenvalues --   -0.39958  -0.38261  -0.36880  -0.36045  -0.35020
 Alpha  occ. eigenvalues --   -0.32081  -0.30066  -0.27697
 Alpha virt. eigenvalues --    0.00613   0.03850   0.03932   0.04535   0.04660
 Alpha virt. eigenvalues --    0.05556   0.05613   0.05726   0.06433   0.06666
 Alpha virt. eigenvalues --    0.06997   0.07068   0.07229   0.08029   0.08421

 Mulliken charges:
               1
     1  C   -0.185941
     2  C    0.806498
     3  O    0.032442
     4  C    0.830632
     5  C   -0.537418
     6  C   -0.663265
     7  C   -0.422780
     8  C   -0.447673
     9  H    0.172221
    10  C    0.195691
    11  H    0.236599
    12  H    0.186075
    13  C   -0.464772
    14  H    0.200208
    15  C   -0.716521
    16  H    0.239196
    17  C   -0.080834
    18  C    0.230172
    19  H    0.191806
    20  B    0.218368
    21  N    0.132229
    22  C   -0.490719
    23  H    0.174496
    24  H    0.168783
    25  H    0.138703
    26  C   -0.363481
    27  H    0.181625
    28  H    0.162116
    29  H    0.161923
    30  C   -0.288928
    31  H    0.196303
    32  C   -0.376825
    33  H    0.152393
    34  C   -0.460445
    35  H    0.175633
    36  H    0.171984
    37  C   -0.681983
    38  H    0.158026
    39  H    0.182341
    40  C   -0.271198
    41  H    0.197208
    42  H    0.138838
    43  H    0.221109
    44  H    0.199163
 Sum of Mulliken charges =  -0.00000

 Dipole moment (field-independent basis, Debye):
    X=             -0.2009    Y=              0.8797    Z=              0.3775  Tot=              0.9782
 Quadrupole moment (field-independent basis, Debye-Ang):
   XX=           -130.9010   YY=           -119.1073   ZZ=           -120.6162
   XY=             -7.8753   XZ=             -2.5767   YZ=              5.3222

 ESP charges:
               1
     1  C    0.355098
     2  C   -0.035069
     3  O   -0.311311
     4  C    0.050006
     5  C    0.048069
     6  C   -0.222780
     7  C    0.321620
     8  C   -0.134886
     9  H    0.140987
    10  C   -0.239457
    11  H    0.116116
    12  H    0.143796
    13  C   -0.132351
    14  H    0.132427
    15  C   -0.159946
    16  H    0.111258
    17  C   -0.055264
    18  C   -0.339219
    19  H    0.091407
    20  B    0.498084
    21  N   -0.397521
    22  C    0.014300
    23  H    0.016953
    24  H    0.068695
    25  H    0.075314
    26  C   -0.045866
    27  H    0.083931
    28  H    0.047755
    29  H    0.049195
    30  C   -0.231115
    31  H    0.007129
    32  C   -0.282709
    33  H    0.043706
    34  C    0.173876
    35  H   -0.036277
    36  H   -0.047520
    37  C    0.103905
    38  H   -0.027580
    39  H   -0.023326
    40  C   -0.039587
    41  H   -0.015377
    42  H    0.000546
    43  H    0.034598
    44  H    0.048386
 Sum of ESP charges =   0.00000

 Normal termination of Gaussian 16 at Thu Apr 11 14:33:40 2024.
