 Gaussian 16, Revision C.02,
 Gaussian 16:  AS64L-G16RevC.02  7-Dec-2021

 ----------------------------------------------------------------------
 # wb97xd/genecp scrf=(solvent=toluene,pcm) nosymm pop=(chelpg) scfcyc=
 300
 ----------------------------------------------------------------------

 ---------------------------
 cyclo_naphtoxanthene_chelpg
 ---------------------------
 Symbolic Z-matrix:
 Charge =  0 Multiplicity = 1

                          Input orientation:
 ---------------------------------------------------------------------
 Center     Atomic      Atomic             Coordinates (Angstroms)
 Number     Number       Type             X           Y           Z
 ---------------------------------------------------------------------
      1          6           0       -2.587129    2.227641    1.766997
      2          6           0       -1.559287    2.637933    2.656121
      3          6           0       -0.711087    3.686030    2.394252
      4          6           0       -0.856411    4.428559    1.203720
      5          6           0       -1.888509    4.073465    0.311295
      6          6           0       -2.728442    2.982245    0.610624
      7          1           0       -1.424148    2.079549    3.576360
      8          1           0        0.073011    3.949903    3.095509
      9          6           0       -2.069044    4.796519   -0.901380
     10          8           0       -3.743581    2.650785   -0.241051
     11          6           0       -3.129514    4.406832   -1.769597
     12          6           0       -3.960116    3.338169   -1.402307
     13          6           0       -3.330743    5.084950   -2.990276
     14          6           0       -5.026463    2.937154   -2.201954
     15          6           0       -4.384034    4.657599   -3.815915
     16          6           0       -5.205468    3.624325   -3.421774
     17          1           0       -4.558824    5.156075   -4.763078
     18          1           0       -6.021740    3.331315   -4.070111
     19          5           0       -3.431700    0.941148    2.076545
     20          7           0       -5.854664    1.872920   -1.790782
     21          6           0       -6.648039    2.137601   -0.596178
     22          1           0       -7.468440    2.844673   -0.798841
     23          1           0       -7.082448    1.200159   -0.239224
     24          1           0       -6.021364    2.544475    0.195780
     25          6           0       -6.631742    1.218063   -2.824492
     26          1           0       -7.034855    0.287601   -2.418184
     27          1           0       -7.481256    1.822814   -3.184081
     28          1           0       -5.994188    0.968185   -3.674323
     29          6           0       -2.449680    6.167902   -3.312856
     30          1           0       -2.600746    6.693976   -4.249671
     31          6           0       -1.448026    6.539568   -2.472437
     32          1           0       -0.794602    7.365376   -2.734193
     33          6           0       -1.229329    5.856515   -1.233231
     34          6           0       -0.190066    6.207154   -0.318268
     35          6           0       -0.012504    5.527223    0.847852
     36          1           0        0.465882    7.034712   -0.568904
     37          1           0        0.783119    5.809935    1.528924
     38          6           0       -3.868066    0.620811    3.556500
     39          1           0       -3.228968    1.077571    4.319030
     40          6           0       -3.929992   -0.034678    0.944053
     41          1           0       -3.299950    0.004248    0.050496
     42          6           0       -4.127012   -0.861869    3.862231
     43          1           0       -4.661856   -0.969607    4.811675
     44          1           0       -3.166081   -1.376132    3.990859
     45          6           0       -4.902709   -1.554036    2.740523
     46          1           0       -5.886797   -1.077545    2.631348
     47          1           0       -5.089113   -2.599085    3.008809
     48          6           0       -4.155080   -1.481844    1.408483
     49          1           0       -4.697975   -2.045662    0.642558
     50          1           0       -3.185392   -1.982730    1.526067
     51          1           0       -4.825375    1.169029    3.637161
     52          1           0       -4.890283    0.388216    0.609738
 ---------------------------------------------------------------------

 SCF Done:  E(RwB97XD) =  -1121.90258335     A.U. after   17 cycles

 Alpha  occ. eigenvalues --  -19.30939 -14.44278 -10.36601 -10.35948 -10.32895
 Alpha  occ. eigenvalues --  -10.31028 -10.30918 -10.30886 -10.30779 -10.30597
 Alpha  occ. eigenvalues --  -10.30456 -10.30362 -10.30356 -10.29928 -10.29597
 Alpha  occ. eigenvalues --  -10.29567 -10.29521 -10.29516 -10.29515 -10.29102
 Alpha  occ. eigenvalues --  -10.28612 -10.27264 -10.27092 -10.26820 -10.26794
 Alpha  occ. eigenvalues --  -10.25234 -10.24433  -6.83710  -1.21229  -1.04868
 Alpha  occ. eigenvalues --   -1.00395  -0.97948  -0.93827  -0.91622  -0.90394
 Alpha  occ. eigenvalues --   -0.89549  -0.87353  -0.85883  -0.83392  -0.82846
 Alpha  occ. eigenvalues --   -0.81534  -0.80717  -0.78073  -0.76087  -0.75762
 Alpha  occ. eigenvalues --   -0.73578  -0.72802  -0.69915  -0.69238  -0.66460
 Alpha  occ. eigenvalues --   -0.65921  -0.65569  -0.64129  -0.61355  -0.60923
 Alpha  occ. eigenvalues --   -0.58920  -0.57517  -0.57287  -0.56673  -0.56289
 Alpha  occ. eigenvalues --   -0.55174  -0.54775  -0.54642  -0.53280  -0.52888
 Alpha  occ. eigenvalues --   -0.52256  -0.51392  -0.51082  -0.50647  -0.49456
 Alpha  occ. eigenvalues --   -0.49111  -0.48715  -0.48342  -0.47908  -0.47528
 Alpha  occ. eigenvalues --   -0.47093  -0.46456  -0.45974  -0.45620  -0.45295
 Alpha  occ. eigenvalues --   -0.44999  -0.43778  -0.42768  -0.42410  -0.41765
 Alpha  occ. eigenvalues --   -0.40969  -0.40832  -0.40149  -0.39585  -0.37747
 Alpha  occ. eigenvalues --   -0.36487  -0.35580  -0.34711  -0.34249  -0.31479
 Alpha  occ. eigenvalues --   -0.28569  -0.25485
 Alpha virt. eigenvalues --    0.00132   0.01162   0.03406   0.03800   0.04366
 Alpha virt. eigenvalues --    0.04475   0.04701   0.05372   0.05399   0.05519
 Alpha virt. eigenvalues --    0.06336   0.06718   0.06741   0.06852   0.07461

 Mulliken charges:
               1
     1  C    0.501688
     2  C   -0.210458
     3  C   -0.369786
     4  C    0.144038
     5  C    0.089102
     6  C   -0.090441
     7  H    0.189660
     8  H    0.217578
     9  C   -0.141605
    10  O    0.039401
    11  C    0.148812
    12  C   -0.164315
    13  C    0.429905
    14  C   -0.041011
    15  C   -0.388360
    16  C   -0.329420
    17  H    0.201930
    18  H    0.203607
    19  B    0.068775
    20  N    0.217915
    21  C   -0.422332
    22  H    0.173693
    23  H    0.190092
    24  H    0.176148
    25  C   -0.322348
    26  H    0.185974
    27  H    0.145878
    28  H    0.175627
    29  C   -0.432868
    30  H    0.186329
    31  C   -0.423900
    32  H    0.194413
    33  C    0.162147
    34  C   -0.391270
    35  C   -0.491650
    36  H    0.199186
    37  H    0.188370
    38  C   -0.238428
    39  H    0.160820
    40  C   -0.123860
    41  H    0.266871
    42  C   -0.658769
    43  H    0.174248
    44  H    0.161972
    45  C   -0.256023
    46  H    0.142532
    47  H    0.199973
    48  C   -0.602169
    49  H    0.180601
    50  H    0.164581
    51  H    0.209673
    52  H    0.007472
 Sum of Mulliken charges =  -0.00000

 Dipole moment (field-independent basis, Debye):
    X=             -0.9930    Y=              0.6028    Z=             -0.8340  Tot=              1.4300
 Quadrupole moment (field-independent basis, Debye-Ang):
   XX=           -146.0431   YY=           -157.7817   ZZ=           -154.6075
   XY=              4.7753   XZ=             11.2376   YZ=             -6.6522

 ESP charges:
               1
     1  C   -0.426106
     2  C   -0.003840
     3  C   -0.332774
     4  C    0.259081
     5  C   -0.138206
     6  C    0.370061
     7  H    0.099436
     8  H    0.144838
     9  C    0.041261
    10  O   -0.196937
    11  C   -0.039172
    12  C    0.080280
    13  C    0.159622
    14  C    0.191589
    15  C   -0.322802
    16  C   -0.118836
    17  H    0.156391
    18  H    0.136351
    19  B    0.557734
    20  N   -0.324852
    21  C    0.079000
    22  H   -0.000798
    23  H    0.056361
    24  H   -0.006938
    25  C   -0.086599
    26  H    0.085088
    27  H    0.048411
    28  H    0.056441
    29  C   -0.192999
    30  H    0.132236
    31  C   -0.202779
    32  H    0.130685
    33  C    0.114581
    34  C   -0.170268
    35  C   -0.252244
    36  H    0.133570
    37  H    0.143270
    38  C   -0.293559
    39  H    0.031437
    40  C   -0.258299
    41  H   -0.022433
    42  C    0.187220
    43  H   -0.034042
    44  H   -0.044666
    45  C   -0.121684
    46  H    0.015710
    47  H   -0.003819
    48  C    0.184719
    49  H   -0.028181
    50  H   -0.046523
    51  H    0.034005
    52  H    0.039982
 Sum of ESP charges =   0.00000

 Normal termination of Gaussian 16 at Thu Apr 11 14:19:35 2024.
