 Gaussian 16, Revision C.02,
 Gaussian 16:  AS64L-G16RevC.02  7-Dec-2021

 ----------------------------------------------------------------------
 # wb97xd/genecp scrf=(solvent=toluene,pcm) nosymm pop=(chelpg) scfcyc=
 300
 ----------------------------------------------------------------------

 -----------------------
 cyclo_metriazole_chelpg
 -----------------------
 Symbolic Z-matrix:
 Charge =  0 Multiplicity = 1

                          Input orientation:
 ---------------------------------------------------------------------
 Center     Atomic      Atomic             Coordinates (Angstroms)
 Number     Number       Type             X           Y           Z
 ---------------------------------------------------------------------
      1          6           0        2.180801    0.587984   -0.179265
      2          1           0        1.648170    1.438319    0.214757
      3          6           0        3.129540   -0.251109    0.377623
      4          7           0        1.993299    0.143851   -1.429895
      5          7           0        2.777127   -0.926846   -1.667995
      6          7           0        3.453282   -1.164911   -0.599177
      7          6           0        1.097433    0.640402   -2.456906
      8          1           0        1.287435    1.698425   -2.637220
      9          1           0        1.295559    0.073833   -3.364267
     10          1           0        0.059827    0.495414   -2.154562
     11          6           0        4.871470   -1.274488    2.188688
     12          6           0        3.385115    0.890936    2.829294
     13          6           0        4.987900   -1.538208    3.698067
     14          6           0        3.584752    0.486841    4.299352
     15          6           0        4.907763   -0.249841    4.519729
     16          1           0        5.918875   -2.068389    3.923314
     17          1           0        4.173407   -2.203287    4.012254
     18          1           0        3.532528    1.367021    4.948433
     19          1           0        2.762883   -0.171748    4.607803
     20          1           0        5.030200   -0.479075    5.583241
     21          1           0        5.741320    0.410326    4.243494
     22          5           0        3.759748   -0.237829    1.794317
     23          1           0        4.085538    1.711540    2.593748
     24          1           0        2.387174    1.314817    2.671010
     25          1           0        5.806271   -0.802039    1.837645
     26          1           0        4.798017   -2.203490    1.616237
 ---------------------------------------------------------------------

 SCF Done:  E(RwB97XD) =  -502.350847679     A.U. after   15 cycles

 Alpha  occ. eigenvalues --  -14.53356 -14.49503 -14.45748 -10.33823 -10.33667
 Alpha  occ. eigenvalues --  -10.29074 -10.27326 -10.26972 -10.26929 -10.25595
 Alpha  occ. eigenvalues --  -10.24758  -6.83797  -1.21442  -1.02885  -0.91277
 Alpha  occ. eigenvalues --   -0.90374  -0.84330  -0.83071  -0.78442  -0.72884
 Alpha  occ. eigenvalues --   -0.70289  -0.68113  -0.65780  -0.62880  -0.59439
 Alpha  occ. eigenvalues --   -0.56901  -0.54946  -0.54166  -0.52022  -0.51449
 Alpha  occ. eigenvalues --   -0.51236  -0.50279  -0.48162  -0.45583  -0.44593
 Alpha  occ. eigenvalues --   -0.43787  -0.41894  -0.41284  -0.40013  -0.38045
 Alpha  occ. eigenvalues --   -0.37258  -0.36459  -0.34901  -0.34834
 Alpha virt. eigenvalues --    0.02460   0.03720   0.04732   0.05174   0.05708
 Alpha virt. eigenvalues --    0.06081   0.06424   0.07194   0.07965   0.08194
 Alpha virt. eigenvalues --    0.08468   0.08945   0.09164   0.09459   0.10301

 Mulliken charges:
               1
     1  C   -0.296801
     2  H    0.266096
     3  C   -0.637446
     4  N    0.263469
     5  N    0.035310
     6  N   -0.148679
     7  C   -0.353878
     8  H    0.191962
     9  H    0.211167
    10  H    0.200465
    11  C   -0.456858
    12  C   -0.428053
    13  C   -0.409609
    14  C   -0.376333
    15  C   -0.257502
    16  H    0.180686
    17  H    0.157389
    18  H    0.176884
    19  H    0.166930
    20  H    0.184840
    21  H    0.151817
    22  B    0.479711
    23  H    0.206178
    24  H    0.140612
    25  H    0.180765
    26  H    0.170876
 Sum of Mulliken charges =  -0.00000

 Dipole moment (field-independent basis, Debye):
    X=             -3.4003    Y=              4.2111    Z=             -0.1592  Tot=              5.4148
 Quadrupole moment (field-independent basis, Debye-Ang):
   XX=            -88.3875   YY=            -76.0187   ZZ=            -70.7984
   XY=             11.7170   XZ=              5.8876   YZ=             -5.6420

 ESP charges:
               1
     1  C   -0.406021
     2  H    0.196047
     3  C    0.196410
     4  N    0.576977
     5  N   -0.384725
     6  N   -0.280007
     7  C   -0.291344
     8  H    0.117279
     9  H    0.109176
    10  H    0.120218
    11  C    0.032680
    12  C   -0.132477
    13  C    0.141472
    14  C    0.124669
    15  C   -0.086806
    16  H   -0.042879
    17  H   -0.033595
    18  H   -0.029569
    19  H   -0.034336
    20  H   -0.000289
    21  H    0.009545
    22  B    0.178515
    23  H    0.018681
    24  H    0.000024
    25  H   -0.016067
    26  H   -0.083578
 Sum of ESP charges =   0.00000

 Normal termination of Gaussian 16 at Tue Apr  9 18:52:15 2024.
