 Gaussian 16, Revision C.02,
 Gaussian 16:  AS64L-G16RevC.02  7-Dec-2021

 ----------------------------------------------------------------------
 # wb97xd/genecp scrf=(solvent=toluene,pcm) nosymm pop=(chelpg) scfcyc=
 300
 ----------------------------------------------------------------------

 ---------------------------
 ethy_dimethylaniline_chelpg
 ---------------------------
 Symbolic Z-matrix:
 Charge =  0 Multiplicity = 1

                          Input orientation:
 ---------------------------------------------------------------------
 Center     Atomic      Atomic             Coordinates (Angstroms)
 Number     Number       Type             X           Y           Z
 ---------------------------------------------------------------------
      1          6           0       -0.639430    0.920274    0.807866
      2          6           0        0.730835    1.079345    0.907890
      3          6           0        1.398658    2.215522    0.409817
      4          6           0        0.609025    3.279755   -0.112761
      5          6           0       -0.778150    3.091010   -0.246336
      6          6           0       -1.383763    1.928720    0.200820
      7          1           0       -1.120783    0.023239    1.178278
      8          1           0        1.326263    0.282379    1.340830
      9          1           0       -1.396550    3.875167   -0.662819
     10          1           0       -2.458962    1.823250    0.099468
     11          7           0        1.194253    4.478076   -0.484866
     12          5           0        2.926495    2.087119    0.237174
     13          6           0        2.130729    5.149121    0.403231
     14          1           0        2.476233    4.473362    1.183541
     15          1           0        3.003393    5.506930   -0.149332
     16          1           0        1.641713    6.006077    0.887984
     17          6           0        0.452874    5.402523   -1.316276
     18          1           0       -0.022784    4.876659   -2.145133
     19          1           0       -0.314901    5.959904   -0.757155
     20          1           0        1.153994    6.126492   -1.736865
     21          6           0        3.735236    2.816342   -0.839468
     22          6           0        3.721079    1.090887    1.091902
     23          6           0        4.421048    3.328324   -1.691064
     24          1           0        5.018687    3.784344   -2.446261
     25          6           0        4.363242    0.329179    1.773981
     26          1           0        4.932360   -0.342984    2.374076
 ---------------------------------------------------------------------

 SCF Done:  E(RwB97XD) =  -543.931161864     A.U. after   18 cycles

 Alpha  occ. eigenvalues --  -14.45300 -10.33954 -10.31131 -10.30966 -10.29809
 Alpha  occ. eigenvalues --  -10.29472 -10.29169 -10.28974 -10.28584 -10.28109
 Alpha  occ. eigenvalues --  -10.27676 -10.27563 -10.27450  -6.87584  -1.05792
 Alpha  occ. eigenvalues --   -0.95462  -0.86695  -0.85359  -0.84871  -0.84792
 Alpha  occ. eigenvalues --   -0.81797  -0.76153  -0.71181  -0.68513  -0.66757
 Alpha  occ. eigenvalues --   -0.63403  -0.62196  -0.59551  -0.57506  -0.56431
 Alpha  occ. eigenvalues --   -0.56144  -0.53361  -0.52463  -0.50262  -0.49834
 Alpha  occ. eigenvalues --   -0.48782  -0.47977  -0.46871  -0.45837  -0.44026
 Alpha  occ. eigenvalues --   -0.42308  -0.40241  -0.37586  -0.36865  -0.36478
 Alpha  occ. eigenvalues --   -0.35733  -0.33478  -0.27754
 Alpha virt. eigenvalues --   -0.02568   0.03823   0.04701   0.04812   0.05576
 Alpha virt. eigenvalues --    0.05622   0.06089   0.06357   0.06676   0.07485
 Alpha virt. eigenvalues --    0.07832   0.07979   0.08570   0.08858   0.09578

 Mulliken charges:
               1
     1  C   -0.574515
     2  C   -0.066991
     3  C    0.520727
     4  C   -0.577524
     5  C   -0.150684
     6  C   -0.387742
     7  H    0.217920
     8  H    0.256074
     9  H    0.186784
    10  H    0.227703
    11  N    0.320113
    12  B   -0.159938
    13  C   -0.501422
    14  H    0.214835
    15  H    0.200698
    16  H    0.149605
    17  C   -0.405001
    18  H    0.164135
    19  H    0.179767
    20  H    0.188144
    21  C   -0.274137
    22  C   -0.038432
    23  C    0.069914
    24  H    0.314959
    25  C   -0.387892
    26  H    0.312900
 Sum of Mulliken charges =  -0.00000

 Dipole moment (field-independent basis, Debye):
    X=             -0.9517    Y=              2.1071    Z=             -0.3886  Tot=              2.3445
 Quadrupole moment (field-independent basis, Debye-Ang):
   XX=            -78.8127   YY=            -60.6234   ZZ=            -80.1871
   XY=              0.3324   XZ=              0.6863   YZ=             -9.1467

 ESP charges:
               1
     1  C   -0.211559
     2  C    0.033797
     3  C   -0.415296
     4  C    0.435564
     5  C   -0.278539
     6  C   -0.015093
     7  H    0.111526
     8  H    0.060306
     9  H    0.130064
    10  H    0.094386
    11  N   -0.322908
    12  B    0.661661
    13  C    0.137656
    14  H   -0.016684
    15  H    0.041858
    16  H   -0.004099
    17  C   -0.146063
    18  H    0.065763
    19  H    0.082783
    20  H    0.097341
    21  C   -0.316558
    22  C   -0.252737
    23  C   -0.207823
    24  H    0.234066
    25  C   -0.242444
    26  H    0.243032
 Sum of ESP charges =   0.00000

 Normal termination of Gaussian 16 at Tue Apr  9 16:12:03 2024.
