 Gaussian 16, Revision C.02,
 Gaussian 16:  AS64L-G16RevC.02  7-Dec-2021

 ----------------------------------------------------------------------
 # wb97xd/genecp scrf=(solvent=toluene,pcm) nosymm pop=(chelpg) scfcyc=
 300
 ----------------------------------------------------------------------

 --------------------
 f_biphenylene_chelpg
 --------------------
 Symbolic Z-matrix:
 Charge =  0 Multiplicity = 1

                          Input orientation:
 ---------------------------------------------------------------------
 Center     Atomic      Atomic             Coordinates (Angstroms)
 Number     Number       Type             X           Y           Z
 ---------------------------------------------------------------------
      1          6           0        1.877801    2.472741   -0.159790
      2          6           0        1.829211    2.539468   -1.576939
      3          6           0        1.545838    4.013897   -1.495039
      4          6           0        1.532193    3.938977   -0.085458
      5          6           0        1.385578    5.178465   -2.193000
      6          6           0        1.263011    5.037682    0.714167
      7          6           0        1.179034    6.319462   -1.389821
      8          1           0        1.416035    5.242585   -3.273102
      9          6           0        1.111240    6.255697   -0.009059
     10          1           0        1.044868    7.284660   -1.866289
     11          1           0        0.913227    7.171289    0.533301
     12          6           0        2.041696    1.456883   -2.375225
     13          1           0        2.009271    1.502544   -3.457337
     14          6           0        2.320327    0.236922   -1.703959
     15          1           0        2.486290   -0.661585   -2.287188
     16          6           0        2.406051    0.174375   -0.332006
     17          6           0        2.210202    1.315695    0.511548
     18          1           0        2.649077   -0.774517    0.133493
     19          5           0        2.503583    1.201079    2.018817
     20          7           0        1.144524    4.958706    2.097311
     21          6           0        1.064147    6.193769    2.850063
     22          1           0        0.104794    6.718827    2.714371
     23          1           0        1.173410    5.959545    3.910630
     24          1           0        1.877597    6.864840    2.570017
     25          6           0        0.250252    3.929687    2.608005
     26          1           0        0.524058    3.676704    3.633737
     27          1           0       -0.796170    4.271588    2.593939
     28          1           0        0.315430    3.026705    2.003866
     29          9           0        2.712575    2.252722    2.804198
     30          9           0        2.621761    0.010889    2.611409
 ---------------------------------------------------------------------

 SCF Done:  E(RwB97XD) =  -820.014590598     A.U. after   17 cycles

 Alpha  occ. eigenvalues --  -24.82066 -24.82015 -14.45098 -10.34076 -10.32296
 Alpha  occ. eigenvalues --  -10.31007 -10.30967 -10.30950 -10.30927 -10.30447
 Alpha  occ. eigenvalues --  -10.30206 -10.30165 -10.29995 -10.29732 -10.29348
 Alpha  occ. eigenvalues --  -10.29326 -10.29240  -6.95842  -1.34302  -1.31217
 Alpha  occ. eigenvalues --   -1.05859  -1.01671  -0.95377  -0.91019  -0.86991
 Alpha  occ. eigenvalues --   -0.85477  -0.82459  -0.80878  -0.77204  -0.73278
 Alpha  occ. eigenvalues --   -0.72212  -0.68300  -0.67579  -0.65421  -0.63228
 Alpha  occ. eigenvalues --   -0.62426  -0.58903  -0.58626  -0.58196  -0.57935
 Alpha  occ. eigenvalues --   -0.56436  -0.55982  -0.55046  -0.53892  -0.52724
 Alpha  occ. eigenvalues --   -0.51631  -0.51209  -0.50360  -0.49982  -0.49246
 Alpha  occ. eigenvalues --   -0.48503  -0.47955  -0.47056  -0.45864  -0.45217
 Alpha  occ. eigenvalues --   -0.43386  -0.42334  -0.41272  -0.38460  -0.37702
 Alpha  occ. eigenvalues --   -0.35180  -0.29348  -0.27436
 Alpha virt. eigenvalues --   -0.00506   0.00750   0.03853   0.04535   0.04897
 Alpha virt. eigenvalues --    0.05934   0.06112   0.06446   0.07112   0.07472
 Alpha virt. eigenvalues --    0.07808   0.08239   0.08327   0.08917   0.09715

 Mulliken charges:
               1
     1  C    0.408341
     2  C    0.333806
     3  C   -0.005483
     4  C   -0.253624
     5  C   -0.462913
     6  C   -0.285803
     7  C   -0.287649
     8  H    0.193161
     9  C    0.059203
    10  H    0.238885
    11  H    0.204558
    12  C   -0.340152
    13  H    0.214588
    14  C   -0.273631
    15  H    0.233523
    16  C   -0.196708
    17  C   -0.558848
    18  H    0.238814
    19  B    0.253334
    20  N    0.185484
    21  C   -0.371154
    22  H    0.159023
    23  H    0.184854
    24  H    0.162069
    25  C   -0.459191
    26  H    0.199060
    27  H    0.187381
    28  H    0.047830
    29  F    0.013128
    30  F   -0.021885
 Sum of Mulliken charges =  -0.00000

 Dipole moment (field-independent basis, Debye):
    X=             -1.3668    Y=              1.7937    Z=             -1.0528  Tot=              2.4888
 Quadrupole moment (field-independent basis, Debye-Ang):
   XX=           -111.1588   YY=            -82.9642   ZZ=            -95.7442
   XY=             -4.1037   XZ=             -7.4629   YZ=              5.2071

 ESP charges:
               1
     1  C    0.241659
     2  C   -0.003565
     3  C    0.116354
     4  C   -0.272302
     5  C   -0.220741
     6  C    0.370171
     7  C   -0.077580
     8  H    0.132173
     9  C   -0.245734
    10  H    0.110789
    11  H    0.132851
    12  C   -0.130648
    13  H    0.126424
    14  C   -0.115689
    15  H    0.102289
    16  C   -0.061251
    17  C   -0.383267
    18  H    0.089416
    19  B    0.882448
    20  N   -0.335558
    21  C   -0.108748
    22  H    0.063783
    23  H    0.091187
    24  H    0.065527
    25  C    0.148437
    26  H    0.056778
    27  H   -0.016457
    28  H   -0.025286
    29  F   -0.380163
    30  F   -0.353295
 Sum of ESP charges =  -0.00000

 Normal termination of Gaussian 16 at Wed Apr 10 17:05:26 2024.
