 Gaussian 16, Revision C.02,
 Gaussian 16:  AS64L-G16RevC.02  7-Dec-2021

 ----------------------------------------------------------------------
 # wb97xd/genecp scrf=(solvent=toluene,pcm) nosymm pop=(chelpg) scfcyc=
 300
 ----------------------------------------------------------------------

 ---------------------
 f_cnmetriazole_chelpg
 ---------------------
 Symbolic Z-matrix:
 Charge =  0 Multiplicity = 1

                          Input orientation:
 ---------------------------------------------------------------------
 Center     Atomic      Atomic             Coordinates (Angstroms)
 Number     Number       Type             X           Y           Z
 ---------------------------------------------------------------------
      1          6           0        2.668328    1.675639    1.173917
      2          6           0        3.148688    0.435471    0.783508
      3          7           0        2.034664    2.167524    0.088855
      4          7           0        2.110284    1.294136   -0.917645
      5          7           0        2.771564    0.261357   -0.513764
      6          5           0        3.956784   -0.610245    1.583247
      7          6           0        1.331998    3.431968   -0.063040
      8          1           0        1.021814    3.501885   -1.102512
      9          1           0        0.459522    3.449661    0.589757
     10          1           0        2.001549    4.255120    0.184125
     11          9           0        4.334340   -1.752593    1.043391
     12          9           0        4.290340   -0.376911    2.844228
     13          6           0        2.751646    2.386978    2.396257
     14          7           0        2.808099    2.980575    3.380281
 ---------------------------------------------------------------------

 SCF Done:  E(RwB97XD) =  -597.821839910     A.U. after   15 cycles

 Alpha  occ. eigenvalues --  -24.84132 -24.83930 -14.57578 -14.53389 -14.49597
 Alpha  occ. eigenvalues --  -14.47642 -10.40344 -10.36818 -10.35869 -10.34632
 Alpha  occ. eigenvalues --   -6.98566  -1.36326  -1.33457  -1.25820  -1.07221
 Alpha  occ. eigenvalues --   -1.05093  -0.96609  -0.87562  -0.80342  -0.76491
 Alpha  occ. eigenvalues --   -0.69975  -0.68569  -0.64719  -0.63307  -0.62969
 Alpha  occ. eigenvalues --   -0.60131  -0.59649  -0.54613  -0.54078  -0.53915
 Alpha  occ. eigenvalues --   -0.53191  -0.51610  -0.49646  -0.49540  -0.47204
 Alpha  occ. eigenvalues --   -0.45558  -0.41143  -0.39315  -0.38421
 Alpha virt. eigenvalues --   -0.02284   0.02606   0.03700   0.05221   0.05529
 Alpha virt. eigenvalues --    0.06905   0.07110   0.08109   0.08258   0.08496
 Alpha virt. eigenvalues --    0.10622   0.11253   0.12073   0.12795   0.13569

 Mulliken charges:
               1
     1  C    0.887478
     2  C   -0.721832
     3  N    0.220189
     4  N    0.024725
     5  N   -0.108107
     6  B    0.368175
     7  C   -0.423423
     8  H    0.217457
     9  H    0.231040
    10  H    0.217119
    11  F    0.011810
    12  F   -0.003382
    13  C   -0.714552
    14  N   -0.206698
 Sum of Mulliken charges =  -0.00000

 Dipole moment (field-independent basis, Debye):
    X=             -2.1811    Y=              3.3891    Z=             -1.2891  Tot=              4.2314
 Quadrupole moment (field-independent basis, Debye-Ang):
   XX=            -69.0543   YY=            -52.5831   ZZ=            -78.7020
   XY=              4.2509   XZ=             -6.5567   YZ=             -9.8149

 ESP charges:
               1
     1  C   -0.131793
     2  C    0.031330
     3  N    0.484472
     4  N   -0.276618
     5  N   -0.290133
     6  B    0.778651
     7  C   -0.260531
     8  H    0.113467
     9  H    0.129320
    10  H    0.129049
    11  F   -0.325495
    12  F   -0.313204
    13  C    0.363583
    14  N   -0.432097
 Sum of ESP charges =   0.00000

 Normal termination of Gaussian 16 at Tue Apr  9 18:33:24 2024.
