 Gaussian 16, Revision C.02,
 Gaussian 16:  AS64L-G16RevC.02  7-Dec-2021

 ----------------------------------------------------------------------
 # wb97xd/genecp scrf=(solvent=toluene,pcm) nosymm pop=(chelpg) scfcyc=
 300
 ----------------------------------------------------------------------

 ------------------------
 f_dimethylaniline_chelpg
 ------------------------
 Symbolic Z-matrix:
 Charge =  0 Multiplicity = 1

                          Input orientation:
 ---------------------------------------------------------------------
 Center     Atomic      Atomic             Coordinates (Angstroms)
 Number     Number       Type             X           Y           Z
 ---------------------------------------------------------------------
      1          6           0       -0.647817    0.905267    0.773748
      2          6           0        0.725007    1.054321    0.861188
      3          6           0        1.386010    2.204562    0.397538
      4          6           0        0.608831    3.279384   -0.113773
      5          6           0       -0.781318    3.099417   -0.231395
      6          6           0       -1.390653    1.933320    0.200766
      7          1           0       -1.130166    0.002037    1.126749
      8          1           0        1.321006    0.244008    1.267007
      9          1           0       -1.398661    3.893554   -0.629614
     10          1           0       -2.467502    1.837929    0.108576
     11          7           0        1.198385    4.473441   -0.498392
     12          5           0        2.916377    2.093930    0.290192
     13          6           0        2.168374    5.125603    0.369473
     14          1           0        2.445906    4.476254    1.198499
     15          1           0        3.074468    5.396096   -0.178234
     16          1           0        1.731059    6.036879    0.798725
     17          6           0        0.443589    5.410224   -1.304696
     18          1           0       -0.050073    4.895951   -2.130470
     19          1           0       -0.311213    5.964002   -0.724807
     20          1           0        1.138686    6.135906   -1.731630
     21          9           0        3.682383    2.851721   -0.495769
     22          9           0        3.582319    1.136799    0.949193
 ---------------------------------------------------------------------

 SCF Done:  E(RwB97XD) =  -590.259999604     A.U. after   16 cycles

 Alpha  occ. eigenvalues --  -24.81506 -24.81410 -14.45425 -10.34429 -10.31305
 Alpha  occ. eigenvalues --  -10.31288 -10.30071 -10.30017 -10.28914 -10.28481
 Alpha  occ. eigenvalues --  -10.28197  -6.95201  -1.33725  -1.30540  -1.05978
 Alpha  occ. eigenvalues --   -0.95893  -0.86087  -0.85723  -0.82104  -0.76489
 Alpha  occ. eigenvalues --   -0.71272  -0.68454  -0.66610  -0.63121  -0.61878
 Alpha  occ. eigenvalues --   -0.58662  -0.57975  -0.57067  -0.56452  -0.55685
 Alpha  occ. eigenvalues --   -0.53638  -0.52457  -0.51444  -0.50456  -0.49305
 Alpha  occ. eigenvalues --   -0.48550  -0.48018  -0.46809  -0.46228  -0.44272
 Alpha  occ. eigenvalues --   -0.42226  -0.37304  -0.34456  -0.28191
 Alpha virt. eigenvalues --    0.01503   0.03828   0.04923   0.05340   0.05763
 Alpha virt. eigenvalues --    0.06265   0.06822   0.06915   0.08360   0.08606
 Alpha virt. eigenvalues --    0.09207   0.09524   0.09871   0.11657   0.12355

 Mulliken charges:
               1
     1  C   -0.437559
     2  C    0.004773
     3  C   -0.512851
     4  C   -0.602350
     5  C    0.349977
     6  C   -0.328557
     7  H    0.207730
     8  H    0.238546
     9  H    0.185958
    10  H    0.233848
    11  N    0.203965
    12  B    0.284809
    13  C   -0.480857
    14  H    0.149301
    15  H    0.223377
    16  H    0.166281
    17  C   -0.421736
    18  H    0.167839
    19  H    0.181578
    20  H    0.187248
    21  F    0.020228
    22  F   -0.021549
 Sum of Mulliken charges =  -0.00000

 Dipole moment (field-independent basis, Debye):
    X=             -2.5298    Y=              2.2968    Z=             -0.2295  Tot=              3.4246
 Quadrupole moment (field-independent basis, Debye-Ang):
   XX=            -77.1507   YY=            -49.5462   ZZ=            -71.2045
   XY=             -1.5027   XZ=              1.3838   YZ=             -2.3811

 ESP charges:
               1
     1  C   -0.198167
     2  C    0.029242
     3  C   -0.476284
     4  C    0.463759
     5  C   -0.276762
     6  C   -0.024803
     7  H    0.110582
     8  H    0.080191
     9  H    0.132170
    10  H    0.101488
    11  N   -0.371556
    12  B    0.847438
    13  C    0.006714
    14  H    0.035443
    15  H    0.080764
    16  H    0.038180
    17  C   -0.076075
    18  H    0.054366
    19  H    0.066040
    20  H    0.091553
    21  F   -0.364710
    22  F   -0.349573
 Sum of ESP charges =   0.00000

 Normal termination of Gaussian 16 at Tue Apr  9 17:26:20 2024.
