 Gaussian 16, Revision C.02,
 Gaussian 16:  AS64L-G16RevC.02  7-Dec-2021

 ----------------------------------------------------------------------
 # wb97xd/genecp scrf=(solvent=toluene,pcm) nosymm pop=(chelpg) scfcyc=
 300
 ----------------------------------------------------------------------

 --------------------
 f_fmetriazole_chelpg
 --------------------
 Symbolic Z-matrix:
 Charge =  0 Multiplicity = 1

                          Input orientation:
 ---------------------------------------------------------------------
 Center     Atomic      Atomic             Coordinates (Angstroms)
 Number     Number       Type             X           Y           Z
 ---------------------------------------------------------------------
      1          6           0        2.659136    1.653603    1.136614
      2          6           0        3.154404    0.422603    0.770056
      3          7           0        2.032685    2.161372    0.073752
      4          7           0        2.122065    1.280090   -0.951020
      5          7           0        2.782144    0.257254   -0.541119
      6          5           0        3.954260   -0.609745    1.572143
      7          6           0        1.340111    3.429523   -0.063580
      8          1           0        0.966919    3.476696   -1.083912
      9          1           0        0.508071    3.477661    0.638384
     10          1           0        2.030585    4.252759    0.117465
     11          9           0        4.347476   -1.755661    1.041403
     12          9           0        4.280697   -0.382145    2.840647
     13          9           0        2.714387    2.318830    2.263790
 ---------------------------------------------------------------------

 SCF Done:  E(RwB97XD) =  -604.829942749     A.U. after   15 cycles

 Alpha  occ. eigenvalues --  -24.88230 -24.83161 -24.82957 -14.55595 -14.51838
 Alpha  occ. eigenvalues --  -14.48572 -10.44685 -10.35264 -10.32484  -6.97394
 Alpha  occ. eigenvalues --   -1.40683  -1.35314  -1.32395  -1.24116  -1.05538
 Alpha  occ. eigenvalues --   -0.93845  -0.86518  -0.77724  -0.74508  -0.69421
 Alpha  occ. eigenvalues --   -0.67705  -0.64603  -0.63818  -0.62272  -0.60870
 Alpha  occ. eigenvalues --   -0.59222  -0.58482  -0.55966  -0.53701  -0.53130
 Alpha  occ. eigenvalues --   -0.52966  -0.52093  -0.50096  -0.44862  -0.40120
 Alpha  occ. eigenvalues --   -0.37872  -0.36923
 Alpha virt. eigenvalues --    0.02640   0.03684   0.04526   0.05642   0.07169
 Alpha virt. eigenvalues --    0.07171   0.08445   0.08556   0.08841   0.11441
 Alpha virt. eigenvalues --    0.11681   0.13023   0.13825   0.15171   0.15800

 Mulliken charges:
               1
     1  C   -0.113773
     2  C   -0.253655
     3  N    0.147705
     4  N   -0.092931
     5  N   -0.136164
     6  B    0.379683
     7  C   -0.408914
     8  H    0.216760
     9  H    0.213887
    10  H    0.213196
    11  F   -0.003664
    12  F   -0.037601
    13  F   -0.124530
 Sum of Mulliken charges =  -0.00000

 Dipole moment (field-independent basis, Debye):
    X=             -2.1990    Y=              5.1088    Z=              1.1194  Tot=              5.6735
 Quadrupole moment (field-independent basis, Debye-Ang):
   XX=            -63.9719   YY=            -40.3721   ZZ=            -62.1896
   XY=             10.0364   XZ=             -0.2177   YZ=              0.2898

 ESP charges:
               1
     1  C    0.208895
     2  C   -0.124891
     3  N    0.446438
     4  N   -0.320110
     5  N   -0.270777
     6  B    0.806454
     7  C   -0.328844
     8  H    0.130663
     9  H    0.146041
    10  H    0.146079
    11  F   -0.335717
    12  F   -0.328223
    13  F   -0.176008
 Sum of ESP charges =  -0.00000

 Normal termination of Gaussian 16 at Wed Apr 10 13:51:16 2024.
