 Gaussian 16, Revision C.02,
 Gaussian 16:  AS64L-G16RevC.02  7-Dec-2021

 ----------------------------------------------------------------------
 # wb97xd/genecp scrf=(solvent=toluene,pcm) nosymm pop=(chelpg) scfcyc=
 300
 ----------------------------------------------------------------------

 -----------------
 f_indenoPy_chelpg
 -----------------
 Symbolic Z-matrix:
 Charge =  0 Multiplicity = 1

                          Input orientation:
 ---------------------------------------------------------------------
 Center     Atomic      Atomic             Coordinates (Angstroms)
 Number     Number       Type             X           Y           Z
 ---------------------------------------------------------------------
      1          6           0        0.673576    0.721989   -0.455895
      2          6           0        1.817612    0.734790    0.343071
      3          6           0        2.193108    1.822910    1.124663
      4          6           0        1.355176    2.940166    1.079870
      5          6           0        0.206856    2.944286    0.286321
      6          6           0       -0.145597    1.839544   -0.487786
      7          1           0        1.589036    3.823213    1.665355
      8          1           0       -0.422830    3.826868    0.273402
      9          1           0       -1.042242    1.862698   -1.097894
     10          6           0        0.556192   -0.607472   -1.174298
     11          1           0        0.563730   -0.482351   -2.261510
     12          1           0       -0.370685   -1.127995   -0.914068
     13          6           0        2.496120   -0.548090    0.199453
     14          6           0        1.774898   -1.354639   -0.686921
     15          6           0        4.081802   -2.107801    0.553748
     16          6           0        2.266121   -2.619103   -0.951266
     17          6           0        3.448020   -2.995720   -0.311255
     18          1           0        5.000963   -2.394526    1.054745
     19          1           0        1.760875   -3.300143   -1.627819
     20          1           0        3.879863   -3.974569   -0.479980
     21          7           0        3.619767   -0.882101    0.819639
     22          5           0        3.496752    1.739257    1.987282
     23          9           0        4.667877    2.173938    1.532409
     24          9           0        3.472515    1.351050    3.258571
 ---------------------------------------------------------------------

 SCF Done:  E(RwB97XD) =  -741.477634364     A.U. after   15 cycles

 Alpha  occ. eigenvalues --  -24.81650 -24.81648 -14.44454 -10.33239 -10.33050
 Alpha  occ. eigenvalues --  -10.31624 -10.31136 -10.30984 -10.30889 -10.30350
 Alpha  occ. eigenvalues --  -10.30310 -10.30305 -10.30173 -10.30000 -10.29377
 Alpha  occ. eigenvalues --   -6.96268  -1.33899  -1.30841  -1.06912  -0.99261
 Alpha  occ. eigenvalues --   -0.93998  -0.91019  -0.87403  -0.83742  -0.81129
 Alpha  occ. eigenvalues --   -0.75877  -0.71585  -0.70469  -0.69027  -0.66739
 Alpha  occ. eigenvalues --   -0.62926  -0.62242  -0.60548  -0.59289  -0.57946
 Alpha  occ. eigenvalues --   -0.57588  -0.55700  -0.54293  -0.53538  -0.52497
 Alpha  occ. eigenvalues --   -0.52289  -0.50896  -0.50699  -0.49538  -0.49506
 Alpha  occ. eigenvalues --   -0.49173  -0.46474  -0.45816  -0.44334  -0.41583
 Alpha  occ. eigenvalues --   -0.38739  -0.36793  -0.35949  -0.33912  -0.31002
 Alpha virt. eigenvalues --    0.00315   0.02844   0.03857   0.04426   0.04665
 Alpha virt. eigenvalues --    0.05152   0.05998   0.06277   0.07056   0.07714
 Alpha virt. eigenvalues --    0.08047   0.08435   0.08595   0.09015   0.09186

 Mulliken charges:
               1
     1  C    0.002480
     2  C   -0.213760
     3  C   -0.809019
     4  C    0.015554
     5  C   -0.354541
     6  C   -0.137155
     7  H    0.244058
     8  H    0.219316
     9  H    0.219481
    10  C   -0.455733
    11  H    0.217390
    12  H    0.217377
    13  C   -0.931134
    14  C    0.475088
    15  C    0.195752
    16  C    0.445618
    17  C   -0.459474
    18  H    0.254395
    19  H    0.245555
    20  H    0.240305
    21  N    0.017294
    22  B    0.331358
    23  F    0.009980
    24  F    0.009817
 Sum of Mulliken charges =  -0.00000

 Dipole moment (field-independent basis, Debye):
    X=             -3.4172    Y=             -2.1161    Z=             -3.3803  Tot=              5.2518
 Quadrupole moment (field-independent basis, Debye-Ang):
   XX=           -103.1197   YY=            -76.0769   ZZ=            -94.9141
   XY=            -12.8584   XZ=             -6.5060   YZ=              3.4766

 ESP charges:
               1
     1  C    0.049649
     2  C   -0.014253
     3  C   -0.300283
     4  C   -0.070518
     5  C   -0.094376
     6  C   -0.152196
     7  H    0.096149
     8  H    0.102500
     9  H    0.119419
    10  C   -0.024008
    11  H    0.058229
    12  H    0.058083
    13  C    0.349029
    14  C   -0.114467
    15  C    0.283844
    16  C    0.025011
    17  C   -0.293322
    18  H    0.055785
    19  H    0.107154
    20  H    0.133716
    21  N   -0.551817
    22  B    0.963244
    23  F   -0.393793
    24  F   -0.392781
 Sum of ESP charges =  -0.00000

 Normal termination of Gaussian 16 at Wed Apr 10 16:22:53 2024.
