 Gaussian 16, Revision C.02,
 Gaussian 16:  AS64L-G16RevC.02  7-Dec-2021

 ----------------------------------------------------------------------
 # wb97xd/genecp scrf=(solvent=toluene,pcm) nosymm pop=(chelpg) scfcyc=
 300
 ----------------------------------------------------------------------

 -----------------------
 f_metriazolamine_chelpg
 -----------------------
 Symbolic Z-matrix:
 Charge =  0 Multiplicity = 1

                          Input orientation:
 ---------------------------------------------------------------------
 Center     Atomic      Atomic             Coordinates (Angstroms)
 Number     Number       Type             X           Y           Z
 ---------------------------------------------------------------------
      1          6           0        2.643297    1.728325    1.117188
      2          6           0        3.093500    0.456089    0.759037
      3          7           0        2.034201    2.200039    0.018368
      4          7           0        2.089100    1.275448   -0.989317
      5          7           0        2.715202    0.255997   -0.548246
      6          5           0        3.839000   -0.551775    1.610996
      7          6           0        1.402775    3.485610   -0.177268
      8          1           0        1.075868    3.533142   -1.213604
      9          1           0        0.535161    3.592602    0.477894
     10          1           0        2.116690    4.288487    0.016969
     11          9           0        4.230181   -1.744866    1.185379
     12          9           0        4.132924   -0.252880    2.888677
     13          7           0        2.793883    2.460626    2.257461
     14          1           0        2.090499    3.152335    2.464418
     15          1           0        3.114860    1.947117    3.063289
 ---------------------------------------------------------------------

 SCF Done:  E(RwB97XD) =  -560.966203000     A.U. after   15 cycles

 Alpha  occ. eigenvalues --  -24.82494 -24.81979 -14.53107 -14.49955 -14.47767
 Alpha  occ. eigenvalues --  -14.46988 -10.39321 -10.34464 -10.30010  -6.95866
 Alpha  occ. eigenvalues --   -1.34346  -1.31396  -1.22066  -1.07376  -1.02188
 Alpha  occ. eigenvalues --   -0.90184  -0.84944  -0.75439  -0.71140  -0.68064
 Alpha  occ. eigenvalues --   -0.65189  -0.62664  -0.62148  -0.60781  -0.60262
 Alpha  occ. eigenvalues --   -0.58224  -0.55915  -0.52942  -0.52316  -0.52167
 Alpha  occ. eigenvalues --   -0.51347  -0.48955  -0.45982  -0.43324  -0.37779
 Alpha  occ. eigenvalues --   -0.36486  -0.32230
 Alpha virt. eigenvalues --    0.03193   0.03948   0.05357   0.06168   0.06393
 Alpha virt. eigenvalues --    0.07314   0.07955   0.08740   0.08991   0.09595
 Alpha virt. eigenvalues --    0.11093   0.12212   0.13239   0.14108   0.14871

 Mulliken charges:
               1
     1  C   -0.201675
     2  C   -0.371603
     3  N    0.155934
     4  N   -0.101605
     5  N   -0.120477
     6  B    0.363322
     7  C   -0.457336
     8  H    0.215894
     9  H    0.203560
    10  H    0.209843
    11  F   -0.018833
    12  F   -0.072251
    13  N   -0.410926
    14  H    0.287109
    15  H    0.319045
 Sum of Mulliken charges =  -0.00000

 Dipole moment (field-independent basis, Debye):
    X=             -2.6081    Y=              6.4444    Z=              3.6513  Tot=              7.8527
 Quadrupole moment (field-independent basis, Debye-Ang):
   XX=            -69.6149   YY=            -39.2293   ZZ=            -54.3407
   XY=             11.6267   XZ=              5.0077   YZ=              7.9571

 ESP charges:
               1
     1  C    0.216749
     2  C   -0.128596
     3  N    0.449488
     4  N   -0.343752
     5  N   -0.283768
     6  B    0.749899
     7  C   -0.317555
     8  H    0.122479
     9  H    0.116918
    10  H    0.145123
    11  F   -0.334143
    12  F   -0.331116
    13  N   -0.844525
    14  H    0.380053
    15  H    0.402745
 Sum of ESP charges =   0.00000

 Normal termination of Gaussian 16 at Tue Apr  9 18:05:24 2024.
