 Gaussian 16, Revision C.02,
 Gaussian 16:  AS64L-G16RevC.02  7-Dec-2021

 ----------------------------------------------------------------------
 # wb97xd/genecp scrf=(solvent=toluene,pcm) nosymm pop=(chelpg) scfcyc=
 300
 ----------------------------------------------------------------------

 -----------------
 f_pyrazole_chelpg
 -----------------
 Symbolic Z-matrix:
 Charge =  0 Multiplicity = 1

                          Input orientation:
 ---------------------------------------------------------------------
 Center     Atomic      Atomic             Coordinates (Angstroms)
 Number     Number       Type             X           Y           Z
 ---------------------------------------------------------------------
      1          6           0        0.929011    6.183455   -0.997383
      2          1           0        1.721367    6.251000   -0.250228
      3          1           0        0.120000    6.852503   -0.693229
      4          6           0        0.707563    6.584021   -3.579095
      5          6           0        2.701387    6.904887   -2.721337
      6          1           0       -0.340501    6.362625   -3.728717
      7          1           0        3.604427    7.017088   -2.141837
      8          6           0        1.440994    6.542865   -2.354644
      9          7           0        1.447299    6.938165   -4.600173
     10          7           0        2.693663    7.141604   -4.078692
     11          5           0        3.790372    7.545958   -4.901296
     12          9           0        4.980389    7.730036   -4.342834
     13          9           0        3.654333    7.741101   -6.196368
     14          1           0        0.537011    5.163267   -0.983085
 ---------------------------------------------------------------------

 SCF Done:  E(RwB97XD) =  -489.598420523     A.U. after   15 cycles

 Alpha  occ. eigenvalues --  -24.83825 -24.83508 -14.51273 -14.46771 -10.33407
 Alpha  occ. eigenvalues --  -10.32127 -10.30563 -10.29209  -6.99047  -1.36027
 Alpha  occ. eigenvalues --   -1.33248  -1.16382  -0.94065  -0.91578  -0.81601
 Alpha  occ. eigenvalues --   -0.72602  -0.69343  -0.67852  -0.65201  -0.63375
 Alpha  occ. eigenvalues --   -0.60613  -0.57343  -0.54964  -0.54350  -0.53379
 Alpha  occ. eigenvalues --   -0.52925  -0.51234  -0.50464  -0.49659  -0.47128
 Alpha  occ. eigenvalues --   -0.39224  -0.36701  -0.34030
 Alpha virt. eigenvalues --    0.03139   0.03986   0.05454   0.05879   0.06855
 Alpha virt. eigenvalues --    0.07789   0.08383   0.08716   0.09228   0.11447
 Alpha virt. eigenvalues --    0.11856   0.12261   0.13239   0.13436   0.15338

 Mulliken charges:
               1
     1  C   -0.916114
     2  H    0.174332
     3  H    0.174643
     4  C   -0.359009
     5  C   -0.307310
     6  H    0.224082
     7  H    0.243708
     8  C    0.571090
     9  N   -0.095294
    10  N   -0.308917
    11  B    0.447384
    12  F   -0.043879
    13  F    0.020181
    14  H    0.175102
 Sum of Mulliken charges =  -0.00000

 Dipole moment (field-independent basis, Debye):
    X=             -0.5566    Y=             -0.7762    Z=              3.6697  Tot=              3.7920
 Quadrupole moment (field-independent basis, Debye-Ang):
   XX=            -51.7544   YY=            -61.0991   ZZ=            -79.0941
   XY=             -5.1165   XZ=              8.9598   YZ=             28.3981

 ESP charges:
               1
     1  C   -0.271191
     2  H    0.113608
     3  H    0.078897
     4  C    0.201381
     5  C   -0.241624
     6  H    0.097314
     7  H    0.173993
     8  C    0.080522
     9  N   -0.550157
    10  N    0.049469
    11  B    0.866011
    12  F   -0.347759
    13  F   -0.330140
    14  H    0.079676
 Sum of ESP charges =   0.00000

 Normal termination of Gaussian 16 at Tue Apr  9 15:55:22 2024.
