 Gaussian 16, Revision C.02,
 Gaussian 16:  AS64L-G16RevC.02  7-Dec-2021

 ----------------------------------------------------------------------
 # wb97xd/genecp scrf=(solvent=toluene,pcm) nosymm pop=(chelpg) scfcyc=
 300
 ----------------------------------------------------------------------

 ------------------
 f_quinoline_chelpg
 ------------------
 Symbolic Z-matrix:
 Charge =  0 Multiplicity = 1

                          Input orientation:
 ---------------------------------------------------------------------
 Center     Atomic      Atomic             Coordinates (Angstroms)
 Number     Number       Type             X           Y           Z
 ---------------------------------------------------------------------
      1          6           0       -3.988688    0.045207    0.202982
      2          6           0       -2.618244    0.067367    0.028339
      3          6           0       -1.962582    1.336809   -0.071784
      4          6           0       -2.734747    2.525676    0.019868
      5          6           0       -4.136699    2.442358    0.204887
      6          6           0       -4.753870    1.225646    0.293424
      7          1           0       -4.496918   -0.909741    0.276258
      8          6           0       -2.063016    3.766895   -0.081361
      9          1           0       -4.710608    3.361035    0.273038
     10          1           0       -5.826374    1.161642    0.433038
     11          6           0       -0.709976    3.781007   -0.265011
     12          6           0       -0.032516    2.544094   -0.348674
     13          1           0       -2.632273    4.688256   -0.012436
     14          1           0       -0.156128    4.707863   -0.347959
     15          1           0        1.044386    2.533421   -0.498221
     16          7           0       -0.615834    1.374651   -0.258492
     17          5           0       -1.886583   -1.299683   -0.034820
     18          9           0       -0.578828   -1.488193   -0.096632
     19          9           0       -2.614068   -2.424405   -0.010719
 ---------------------------------------------------------------------

 SCF Done:  E(RwB97XD) =  -625.956817011     A.U. after   16 cycles

 Alpha  occ. eigenvalues --  -24.81636 -24.81441 -14.43857 -10.34365 -10.33548
 Alpha  occ. eigenvalues --  -10.31924 -10.31777 -10.31479 -10.31421 -10.30629
 Alpha  occ. eigenvalues --  -10.30583 -10.29553  -6.95728  -1.33878  -1.30689
 Alpha  occ. eigenvalues --   -1.06465  -0.97170  -0.92573  -0.86923  -0.86075
 Alpha  occ. eigenvalues --   -0.75545  -0.74271  -0.72089  -0.66937  -0.63949
 Alpha  occ. eigenvalues --   -0.62530  -0.62165  -0.60776  -0.57950  -0.57870
 Alpha  occ. eigenvalues --   -0.55868  -0.53155  -0.52276  -0.52048  -0.51752
 Alpha  occ. eigenvalues --   -0.50655  -0.50089  -0.49230  -0.44867  -0.44852
 Alpha  occ. eigenvalues --   -0.44032  -0.40639  -0.34938  -0.34170  -0.32804
 Alpha virt. eigenvalues --   -0.01876   0.02926   0.03719   0.03866   0.04620
 Alpha virt. eigenvalues --    0.05356   0.06557   0.06668   0.08129   0.08474
 Alpha virt. eigenvalues --    0.08766   0.09351   0.10484   0.11958   0.12284

 Mulliken charges:
               1
     1  C   -0.125599
     2  C   -0.930047
     3  C   -2.254453
     4  C    2.233877
     5  C   -0.004782
     6  C   -0.251440
     7  H    0.239458
     8  C   -0.222407
     9  H    0.206476
    10  H    0.241783
    11  C   -0.392078
    12  C    0.103305
    13  H    0.227711
    14  H    0.251390
    15  H    0.255968
    16  N    0.090881
    17  B    0.373637
    18  F   -0.022102
    19  F   -0.021578
 Sum of Mulliken charges =  -0.00000

 Dipole moment (field-independent basis, Debye):
    X=             -2.4482    Y=              4.7141    Z=              0.2574  Tot=              5.3182
 Quadrupole moment (field-independent basis, Debye-Ang):
   XX=            -55.3318   YY=            -59.2177   ZZ=            -74.6126
   XY=             -8.2432   XZ=             -1.9991   YZ=             -0.6101

 ESP charges:
               1
     1  C    0.007139
     2  C   -0.501593
     3  C    0.549060
     4  C   -0.002763
     5  C   -0.151145
     6  C   -0.109588
     7  H    0.101206
     8  C   -0.066824
     9  H    0.126626
    10  H    0.111984
    11  C   -0.264775
    12  C    0.343190
    13  H    0.130013
    14  H    0.132200
    15  H    0.044834
    16  N   -0.635690
    17  B    0.938765
    18  F   -0.374589
    19  F   -0.378050
 Sum of ESP charges =   0.00000

 Normal termination of Gaussian 16 at Wed Apr 10 16:13:53 2024.
