 Gaussian 16, Revision C.02,
 Gaussian 16:  AS64L-G16RevC.02  7-Dec-2021

 ----------------------------------------------------------------------
 # wb97xd/genecp scrf=(solvent=toluene,pcm) nosymm pop=(chelpg) scfcyc=
 300
 ----------------------------------------------------------------------

 -----------------------------------
 f_tetramethylbenzopiperidine_chelpg
 -----------------------------------
 Symbolic Z-matrix:
 Charge =  0 Multiplicity = 1

                          Input orientation:
 ---------------------------------------------------------------------
 Center     Atomic      Atomic             Coordinates (Angstroms)
 Number     Number       Type             X           Y           Z
 ---------------------------------------------------------------------
      1          6           0       -0.640157    1.036665    0.987008
      2          6           0        0.638262    0.966976    0.454366
      3          6           0        1.308557    2.111717   -0.001336
      4          6           0        0.663765    3.364229    0.084429
      5          6           0       -0.623851    3.417055    0.622931
      6          6           0       -1.270451    2.270770    1.069598
      7          1           0       -1.139006    0.138952    1.333295
      8          1           0        1.133007    0.004480    0.388032
      9          1           0       -1.128160    4.371277    0.693237
     10          1           0       -2.270579    2.345708    1.482935
     11          5           0        2.733111    1.898704   -0.574045
     12          6           0        0.890064    5.070432   -1.690843
     13          6           0        1.891081    5.428764    0.672925
     14          6           0        1.990495    5.997886   -2.233622
     15          6           0        2.947287    6.338825    0.023628
     16          6           0        2.444396    7.043941   -1.226888
     17          1           0        1.624775    6.470339   -3.150773
     18          1           0        2.852301    5.378854   -2.506152
     19          1           0        3.288295    7.062631    0.770580
     20          1           0        3.808695    5.718812   -0.247874
     21          1           0        3.242881    7.655079   -1.657744
     22          1           0        1.626580    7.731414   -0.984220
     23          7           0        1.329059    4.538434   -0.375094
     24          6           0        0.851341    6.290872    1.422988
     25          1           0        1.355531    6.882094    2.193310
     26          1           0        0.325850    6.985108    0.767842
     27          1           0        0.110841    5.666144    1.926389
     28          6           0       -0.460704    5.819852   -1.672504
     29          1           0       -0.442390    6.708794   -1.042655
     30          1           0       -0.714191    6.140153   -2.687541
     31          1           0       -1.266814    5.169957   -1.326187
     32          6           0        2.611080    4.575083    1.726975
     33          1           0        1.918565    3.940130    2.284714
     34          1           0        3.371034    3.943253    1.263442
     35          1           0        3.109032    5.234889    2.442380
     36          6           0        0.745012    3.907067   -2.682703
     37          1           0        1.672968    3.336180   -2.752103
     38          1           0       -0.065095    3.228474   -2.405191
     39          1           0        0.519382    4.308400   -3.674226
     40          9           0        3.239758    0.658307   -0.615721
     41          9           0        3.553127    2.829607   -1.048628
 ---------------------------------------------------------------------

 SCF Done:  E(RwB97XD) =  -864.249841044     A.U. after   14 cycles

 Alpha  occ. eigenvalues --  -24.81493 -24.81467 -14.41598 -10.33225 -10.32423
 Alpha  occ. eigenvalues --  -10.32416 -10.30266 -10.30123 -10.29531 -10.29219
 Alpha  occ. eigenvalues --  -10.28556 -10.27270 -10.27036 -10.27028 -10.26566
 Alpha  occ. eigenvalues --  -10.26545 -10.26498 -10.26494  -6.95481  -1.33826
 Alpha  occ. eigenvalues --   -1.30552  -1.03778  -0.96429  -0.90977  -0.90346
 Alpha  occ. eigenvalues --   -0.86052  -0.84647  -0.82242  -0.78768  -0.77790
 Alpha  occ. eigenvalues --   -0.76921  -0.72232  -0.71441  -0.68759  -0.67116
 Alpha  occ. eigenvalues --   -0.66660  -0.63669  -0.61905  -0.59756  -0.58435
 Alpha  occ. eigenvalues --   -0.58141  -0.56332  -0.55948  -0.55933  -0.54894
 Alpha  occ. eigenvalues --   -0.53185  -0.52962  -0.51828  -0.51018  -0.50383
 Alpha  occ. eigenvalues --   -0.50367  -0.50019  -0.49267  -0.48730  -0.47605
 Alpha  occ. eigenvalues --   -0.47214  -0.46307  -0.45895  -0.44581  -0.44562
 Alpha  occ. eigenvalues --   -0.44114  -0.43803  -0.42506  -0.42301  -0.40459
 Alpha  occ. eigenvalues --   -0.39835  -0.39151  -0.37638  -0.34619  -0.33372
 Alpha  occ. eigenvalues --   -0.28520
 Alpha virt. eigenvalues --    0.00991   0.03880   0.04403   0.04630   0.05146
 Alpha virt. eigenvalues --    0.05439   0.06074   0.06426   0.06781   0.07051
 Alpha virt. eigenvalues --    0.07501   0.08200   0.08429   0.08637   0.09670

 Mulliken charges:
               1
     1  C   -0.472027
     2  C   -0.104151
     3  C   -0.406531
     4  C    0.091910
     5  C   -0.122214
     6  C   -0.530780
     7  H    0.220816
     8  H    0.245981
     9  H    0.193217
    10  H    0.259524
    11  B    0.331673
    12  C   -0.421428
    13  C   -0.422308
    14  C   -0.160573
    15  C   -0.162807
    16  C   -0.536470
    17  H    0.177524
    18  H    0.163615
    19  H    0.177444
    20  H    0.163530
    21  H    0.245444
    22  H    0.135094
    23  N    0.591490
    24  C   -0.423635
    25  H    0.188425
    26  H    0.126602
    27  H    0.156924
    28  C   -0.424129
    29  H    0.126924
    30  H    0.188325
    31  H    0.156771
    32  C   -0.405175
    33  H    0.169367
    34  H    0.153850
    35  H    0.193346
    36  C   -0.405277
    37  H    0.154176
    38  H    0.169655
    39  H    0.193349
    40  F   -0.033082
    41  F    0.055608
 Sum of Mulliken charges =  -0.00000

 Dipole moment (field-independent basis, Debye):
    X=             -2.4404    Y=              1.2862    Z=              0.8399  Tot=              2.8836
 Quadrupole moment (field-independent basis, Debye-Ang):
   XX=           -121.2354   YY=           -103.3284   ZZ=           -114.1589
   XY=             -1.6155   XZ=              0.9802   YZ=              0.0789

 ESP charges:
               1
     1  C   -0.142207
     2  C   -0.065188
     3  C   -0.427680
     4  C    0.711850
     5  C   -0.271316
     6  C   -0.063068
     7  H    0.113192
     8  H    0.110029
     9  H    0.147293
    10  H    0.106747
    11  B    0.882385
    12  C    0.820012
    13  C    0.831260
    14  C   -0.317952
    15  C   -0.300534
    16  C    0.203028
    17  H    0.030599
    18  H    0.068827
    19  H    0.025248
    20  H    0.064889
    21  H   -0.003765
    22  H   -0.061976
    23  N   -1.019226
    24  C   -0.370006
    25  H    0.066063
    26  H    0.083563
    27  H    0.039584
    28  C   -0.357886
    29  H    0.079485
    30  H    0.063744
    31  H    0.036296
    32  C   -0.318836
    33  H    0.008115
    34  H    0.048429
    35  H    0.071578
    36  C   -0.285208
    37  H    0.040214
    38  H   -0.000199
    39  H    0.063724
    40  F   -0.376509
    41  F   -0.334598
 Sum of ESP charges =  -0.00000

 Normal termination of Gaussian 16 at Tue Apr  9 17:23:56 2024.
