 Gaussian 16, Revision C.02,
 Gaussian 16:  AS64L-G16RevC.02  7-Dec-2021

 ----------------------------------------------------------------------
 # wb97xd/genecp scrf=(solvent=toluene,pcm) nosymm pop=(chelpg) scfcyc=
 300
 ----------------------------------------------------------------------

 --------------------
 h_biphenylene_chelpg
 --------------------
 Symbolic Z-matrix:
 Charge =  0 Multiplicity = 1

                          Input orientation:
 ---------------------------------------------------------------------
 Center     Atomic      Atomic             Coordinates (Angstroms)
 Number     Number       Type             X           Y           Z
 ---------------------------------------------------------------------
      1          6           0        1.844560    2.460006   -0.178923
      2          6           0        1.811762    2.533153   -1.595974
      3          6           0        1.513277    4.005995   -1.509012
      4          6           0        1.495476    3.922676   -0.099608
      5          6           0        1.358295    5.177383   -2.197324
      6          6           0        1.250672    5.019858    0.707873
      7          6           0        1.157507    6.313938   -1.386086
      8          1           0        1.392539    5.250850   -3.276809
      9          6           0        1.099012    6.243028   -0.004732
     10          1           0        1.025764    7.282520   -1.856419
     11          1           0        0.912805    7.157019    0.544720
     12          6           0        2.060784    1.455533   -2.390916
     13          1           0        2.045173    1.500551   -3.473689
     14          6           0        2.358999    0.240059   -1.715769
     15          1           0        2.555104   -0.652123   -2.299854
     16          6           0        2.425946    0.179598   -0.342695
     17          6           0        2.189950    1.311675    0.510534
     18          1           0        2.685151   -0.763494    0.128096
     19          5           0        2.448013    1.236215    2.022989
     20          7           0        1.161746    4.930171    2.096187
     21          6           0        1.137492    6.164198    2.855844
     22          1           0        0.191136    6.718284    2.747114
     23          1           0        1.266375    5.922448    3.912604
     24          1           0        1.962799    6.811944    2.556166
     25          6           0        0.226166    3.939125    2.608924
     26          1           0        0.489752    3.679020    3.636498
     27          1           0       -0.805901    4.322507    2.595435
     28          1           0        0.260360    3.030684    2.010653
     29          1           0        2.382041    2.210406    2.708532
     30          1           0        2.759679    0.190029    2.515997
 ---------------------------------------------------------------------

 SCF Done:  E(RwB97XD) =  -621.372204588     A.U. after   17 cycles

 Alpha  occ. eigenvalues --  -14.45079 -10.33891 -10.31768 -10.30983 -10.30839
 Alpha  occ. eigenvalues --  -10.30821 -10.30542 -10.30265 -10.29942 -10.29916
 Alpha  occ. eigenvalues --  -10.29536 -10.29278 -10.29267 -10.29157 -10.27927
 Alpha  occ. eigenvalues --   -6.84623  -1.05738  -1.01333  -0.94983  -0.90668
 Alpha  occ. eigenvalues --   -0.86447  -0.85018  -0.82300  -0.80590  -0.76853
 Alpha  occ. eigenvalues --   -0.72920  -0.71773  -0.67066  -0.65772  -0.63027
 Alpha  occ. eigenvalues --   -0.58607  -0.58122  -0.57736  -0.56122  -0.55905
 Alpha  occ. eigenvalues --   -0.54565  -0.53721  -0.51124  -0.50678  -0.49588
 Alpha  occ. eigenvalues --   -0.48795  -0.47988  -0.47382  -0.46926  -0.45641
 Alpha  occ. eigenvalues --   -0.44881  -0.43215  -0.42516  -0.40476  -0.39693
 Alpha  occ. eigenvalues --   -0.38177  -0.37489  -0.34769  -0.29285  -0.27305
 Alpha virt. eigenvalues --   -0.01685   0.00783   0.03908   0.04571   0.04972
 Alpha virt. eigenvalues --    0.05282   0.05968   0.06185   0.06476   0.07587
 Alpha virt. eigenvalues --    0.07799   0.08110   0.08450   0.09134   0.09622

 Mulliken charges:
               1
     1  C    0.115811
     2  C    0.436210
     3  C    0.006232
     4  C   -0.191727
     5  C   -0.501059
     6  C   -0.297082
     7  C   -0.201186
     8  H    0.193650
     9  C    0.018144
    10  H    0.239459
    11  H    0.201363
    12  C   -0.429012
    13  H    0.214418
    14  C   -0.306046
    15  H    0.231446
    16  C   -0.265323
    17  C    0.268888
    18  H    0.246850
    19  B   -0.289979
    20  N    0.181803
    21  C   -0.369050
    22  H    0.158407
    23  H    0.180663
    24  H    0.164543
    25  C   -0.486152
    26  H    0.199571
    27  H    0.177941
    28  H    0.067359
    29  H    0.043449
    30  H   -0.009592
 Sum of Mulliken charges =  -0.00000

 Dipole moment (field-independent basis, Debye):
    X=             -1.0874    Y=              1.6511    Z=             -0.1058  Tot=              1.9798
 Quadrupole moment (field-independent basis, Debye-Ang):
   XX=           -102.7319   YY=            -74.7260   ZZ=            -84.7229
   XY=             -3.4494   XZ=             -4.4037   YZ=              5.7232

 ESP charges:
               1
     1  C    0.170672
     2  C    0.016974
     3  C    0.112539
     4  C   -0.243360
     5  C   -0.226729
     6  C    0.351965
     7  C   -0.071386
     8  H    0.133381
     9  C   -0.238965
    10  H    0.105874
    11  H    0.131039
    12  C   -0.154793
    13  H    0.128683
    14  C   -0.083403
    15  H    0.092831
    16  C   -0.142769
    17  C   -0.197441
    18  H    0.101109
    19  B    0.498485
    20  N   -0.343538
    21  C   -0.130007
    22  H    0.071065
    23  H    0.092998
    24  H    0.068912
    25  C    0.222105
    26  H    0.035918
    27  H   -0.038403
    28  H   -0.038880
    29  H   -0.231001
    30  H   -0.193873
 Sum of ESP charges =   0.00000

 Normal termination of Gaussian 16 at Wed Apr 10 17:02:28 2024.
