 Gaussian 16, Revision C.02,
 Gaussian 16:  AS64L-G16RevC.02  7-Dec-2021

 ----------------------------------------------------------------------
 # wb97xd/genecp scrf=(solvent=toluene,pcm) nosymm pop=(chelpg) scfcyc=
 300
 ----------------------------------------------------------------------

 ----------------------
 h_fnmeimidazole_chelpg
 ----------------------
 Symbolic Z-matrix:
 Charge =  0 Multiplicity = 1

                          Input orientation:
 ---------------------------------------------------------------------
 Center     Atomic      Atomic             Coordinates (Angstroms)
 Number     Number       Type             X           Y           Z
 ---------------------------------------------------------------------
      1          6           0        2.738433    1.629412    1.047781
      2          1           0        2.896685    2.220064    1.936767
      3          6           0        3.187288    0.367288    0.707920
      4          7           0        1.987494    2.089327    0.007221
      5          7           0        2.697006    0.051377   -0.571911
      6          5           0        4.060354   -0.532314    1.564229
      7          6           0        1.294463    3.361241   -0.120389
      8          1           0        1.673370    3.911911   -0.981502
      9          1           0        0.222972    3.196772   -0.235852
     10          1           0        1.473287    3.940745    0.783022
     11          1           0        4.408272   -0.137255    2.639735
     12          1           0        4.397619   -1.611312    1.181876
     13          6           0        2.018897    1.082185   -0.911733
     14          9           0        1.365345    1.246005   -2.047454
 ---------------------------------------------------------------------

 SCF Done:  E(RwB97XD) =  -390.193449136     A.U. after   15 cycles

 Alpha  occ. eigenvalues --  -24.85525 -14.52273 -14.43302 -10.43459 -10.34699
 Alpha  occ. eigenvalues --  -10.34217 -10.29750  -6.84279  -1.37957  -1.15424
 Alpha  occ. eigenvalues --   -1.02078  -0.87364  -0.83569  -0.73694  -0.71501
 Alpha  occ. eigenvalues --   -0.65534  -0.62142  -0.59700  -0.58785  -0.56187
 Alpha  occ. eigenvalues --   -0.56135  -0.52303  -0.51059  -0.49859  -0.44232
 Alpha  occ. eigenvalues --   -0.41616  -0.38286  -0.38074  -0.32964
 Alpha virt. eigenvalues --    0.00636   0.03591   0.05746   0.06336   0.06523
 Alpha virt. eigenvalues --    0.08150   0.08229   0.08699   0.10180   0.10375
 Alpha virt. eigenvalues --    0.10712   0.11528   0.13048   0.13391   0.13660

 Mulliken charges:
               1
     1  C   -0.165444
     2  H    0.250857
     3  C   -0.104982
     4  N   -0.018003
     5  N   -0.160986
     6  B   -0.071488
     7  C   -0.400760
     8  H    0.214214
     9  H    0.214876
    10  H    0.176527
    11  H   -0.001071
    12  H   -0.055758
    13  C    0.289085
    14  F   -0.167067
 Sum of Mulliken charges =  -0.00000

 Dipole moment (field-independent basis, Debye):
    X=             -2.0542    Y=              5.7618    Z=              1.5505  Tot=              6.3105
 Quadrupole moment (field-independent basis, Debye-Ang):
   XX=            -57.1747   YY=            -31.7008   ZZ=            -49.6547
   XY=             10.9588   XZ=              2.2079   YZ=              1.9873

 ESP charges:
               1
     1  C   -0.374908
     2  H    0.219677
     3  C    0.130993
     4  N    0.121620
     5  N   -0.673631
     6  B    0.389959
     7  C   -0.252952
     8  H    0.113522
     9  H    0.114122
    10  H    0.149844
    11  H   -0.196956
    12  H   -0.157178
    13  C    0.664634
    14  F   -0.248746
 Sum of ESP charges =   0.00000

 Normal termination of Gaussian 16 at Tue Apr  9 16:44:54 2024.
