 Gaussian 16, Revision C.02,
 Gaussian 16:  AS64L-G16RevC.02  7-Dec-2021

 ----------------------------------------------------------------------
 # wb97xd/genecp scrf=(solvent=toluene,pcm) nosymm pop=(chelpg) scfcyc=
 300
 ----------------------------------------------------------------------

 -----------------
 h_indenoPy_chelpg
 -----------------
 Symbolic Z-matrix:
 Charge =  0 Multiplicity = 1

                          Input orientation:
 ---------------------------------------------------------------------
 Center     Atomic      Atomic             Coordinates (Angstroms)
 Number     Number       Type             X           Y           Z
 ---------------------------------------------------------------------
      1          6           0        0.497879    0.755684   -0.560840
      2          6           0        1.629767    0.767592    0.226256
      3          6           0        2.205802    1.698086    1.066121
      4          6           0        1.441555    2.873411    1.096491
      5          6           0        0.265618    2.960640    0.325847
      6          6           0       -0.234188    1.935985   -0.505793
      7          1           0        1.725923    3.730121    1.699606
      8          1           0       -0.301168    3.885531    0.373694
      9          1           0       -1.150870    2.095477   -1.062806
     10          6           0        0.439120   -0.624900   -1.255769
     11          1           0        0.462119   -0.535452   -2.345398
     12          1           0       -0.469228   -1.175047   -0.994689
     13          6           0        2.314057   -0.441849    0.125468
     14          6           0        1.699990   -1.342549   -0.725646
     15          6           0        4.062325   -1.712789    0.730940
     16          6           0        2.362517   -2.548673   -0.839514
     17          6           0        3.554935   -2.709926   -0.092191
     18          1           0        4.974218   -1.843557    1.299143
     19          1           0        2.012215   -3.361235   -1.466506
     20          1           0        4.100049   -3.642789   -0.157692
     21          7           0        3.418738   -0.533848    0.845171
     22          5           0        3.563034    0.964669    1.655737
     23          1           0        4.609275    1.452009    1.291998
     24          1           0        3.540273    0.717711    2.840197
 ---------------------------------------------------------------------

 SCF Done:  E(RwB97XD) =  -542.840691354     A.U. after   16 cycles

 Alpha  occ. eigenvalues --  -14.49561 -10.35536 -10.33377 -10.33317 -10.32497
 Alpha  occ. eigenvalues --  -10.32186 -10.31694 -10.30577 -10.29429 -10.29238
 Alpha  occ. eigenvalues --  -10.28695 -10.27320 -10.27075  -6.81351  -1.10803
 Alpha  occ. eigenvalues --   -0.99338  -0.94860  -0.91510  -0.87157  -0.83377
 Alpha  occ. eigenvalues --   -0.81181  -0.76426  -0.73638  -0.69643  -0.68743
 Alpha  occ. eigenvalues --   -0.63365  -0.60784  -0.59338  -0.58565  -0.56629
 Alpha  occ. eigenvalues --   -0.54446  -0.52859  -0.52041  -0.52026  -0.50896
 Alpha  occ. eigenvalues --   -0.49543  -0.47037  -0.46118  -0.45397  -0.43006
 Alpha  occ. eigenvalues --   -0.41668  -0.41152  -0.38098  -0.37390  -0.36928
 Alpha  occ. eigenvalues --   -0.31825  -0.30269
 Alpha virt. eigenvalues --   -0.00409   0.02108   0.03640   0.04534   0.05219
 Alpha virt. eigenvalues --    0.05494   0.06036   0.06486   0.06707   0.07612
 Alpha virt. eigenvalues --    0.07864   0.08638   0.08956   0.09197   0.10854

 Mulliken charges:
               1
     1  C    0.719856
     2  C    0.478150
     3  C    0.274116
     4  C   -0.606143
     5  C   -0.253378
     6  C   -0.631865
     7  H    0.253048
     8  H    0.208068
     9  H    0.215033
    10  C   -2.657640
    11  H    0.239558
    12  H    0.239650
    13  C   -0.316962
    14  C    1.108985
    15  C   -0.001715
    16  C    0.297634
    17  C   -0.398100
    18  H    0.236988
    19  H    0.265467
    20  H    0.255574
    21  N    0.204438
    22  B   -0.016134
    23  H   -0.057372
    24  H   -0.057255
 Sum of Mulliken charges =  -0.00000

 Dipole moment (field-independent basis, Debye):
    X=             -1.7199    Y=             -4.7907    Z=             -3.4577  Tot=              6.1535
 Quadrupole moment (field-independent basis, Debye-Ang):
   XX=            -85.3494   YY=            -71.6694   ZZ=            -86.0705
   XY=            -18.3099   XZ=             -5.2517   YZ=              0.7544

 ESP charges:
               1
     1  C    0.024337
     2  C   -0.051292
     3  C   -0.088687
     4  C   -0.128971
     5  C   -0.082236
     6  C   -0.204855
     7  H    0.095066
     8  H    0.095676
     9  H    0.122902
    10  C    0.103238
    11  H    0.025099
    12  H    0.025247
    13  C    0.183420
    14  C   -0.074688
    15  C    0.052299
    16  C   -0.017103
    17  C   -0.214459
    18  H    0.125413
    19  H    0.118097
    20  H    0.131944
    21  N   -0.107267
    22  B    0.331729
    23  H   -0.232421
    24  H   -0.232486
 Sum of ESP charges =  -0.00000

 Normal termination of Gaussian 16 at Wed Apr 10 16:20:43 2024.
