 Gaussian 16, Revision C.02,
 Gaussian 16:  AS64L-G16RevC.02  7-Dec-2021

 ----------------------------------------------------------------------
 # wb97xd/genecp scrf=(solvent=toluene,pcm) nosymm pop=(chelpg) scfcyc=
 300
 ----------------------------------------------------------------------

 ------------------------
 h_meimidazolamine_chelpg
 ------------------------
 Symbolic Z-matrix:
 Charge =  0 Multiplicity = 1

                          Input orientation:
 ---------------------------------------------------------------------
 Center     Atomic      Atomic             Coordinates (Angstroms)
 Number     Number       Type             X           Y           Z
 ---------------------------------------------------------------------
      1          6           0        2.703422    1.611682    1.063951
      2          1           0        2.821345    2.181269    1.972825
      3          6           0        3.185410    0.368345    0.705877
      4          7           0        1.980376    2.085180    0.011181
      5          7           0        2.729795    0.075759   -0.588261
      6          5           0        4.053006   -0.524016    1.569357
      7          6           0        1.302340    3.361810   -0.098458
      8          1           0        1.550065    3.828032   -1.053462
      9          1           0        0.218921    3.237744   -0.025400
     10          1           0        1.637051    4.009628    0.709863
     11          1           0        4.356305   -0.148387    2.666756
     12          1           0        4.436563   -1.585999    1.177461
     13          6           0        2.029431    1.106855   -0.956440
     14          7           0        1.447567    1.311619   -2.196228
     15          1           0        1.516460    0.483669   -2.770878
     16          1           0        0.497749    1.656648   -2.170280
 ---------------------------------------------------------------------

 SCF Done:  E(RwB97XD) =  -346.319377444     A.U. after   15 cycles

 Alpha  occ. eigenvalues --  -14.50321 -14.45265 -14.40896 -10.38008 -10.33931
 Alpha  occ. eigenvalues --  -10.32648 -10.28043  -6.83156  -1.14428  -1.02294
 Alpha  occ. eigenvalues --   -0.99229  -0.85187  -0.81512  -0.71651  -0.67370
 Alpha  occ. eigenvalues --   -0.63923  -0.60228  -0.58029  -0.56211  -0.55710
 Alpha  occ. eigenvalues --   -0.52140  -0.50626  -0.50063  -0.43248  -0.41336
 Alpha  occ. eigenvalues --   -0.40468  -0.36090  -0.35976  -0.29512
 Alpha virt. eigenvalues --    0.01581   0.03459   0.05071   0.06120   0.06760
 Alpha virt. eigenvalues --    0.07602   0.08015   0.08728   0.08919   0.09924
 Alpha virt. eigenvalues --    0.10615   0.11307   0.11962   0.12880   0.13817

 Mulliken charges:
               1
     1  C   -0.066492
     2  H    0.256487
     3  C   -0.155067
     4  N    0.004655
     5  N   -0.193725
     6  B   -0.092837
     7  C   -0.448183
     8  H    0.206061
     9  H    0.216416
    10  H    0.174332
    11  H   -0.012048
    12  H   -0.066383
    13  C    0.021540
    14  N   -0.435832
    15  H    0.317645
    16  H    0.273429
 Sum of Mulliken charges =  -0.00000

 Dipole moment (field-independent basis, Debye):
    X=             -4.3083    Y=              5.1138    Z=             -0.6878  Tot=              6.7221
 Quadrupole moment (field-independent basis, Debye-Ang):
   XX=            -67.2893   YY=            -36.9511   ZZ=            -47.0352
   XY=              7.4774   XZ=              1.7126   YZ=              2.6698

 ESP charges:
               1
     1  C   -0.391491
     2  H    0.209889
     3  C    0.146184
     4  N    0.126336
     5  N   -0.732392
     6  B    0.371938
     7  C   -0.197508
     8  H    0.096945
     9  H    0.084413
    10  H    0.132284
    11  H   -0.203621
    12  H   -0.164663
    13  C    0.679551
    14  N   -0.910718
    15  H    0.397378
    16  H    0.355477
 Sum of ESP charges =  -0.00000

 1\1\GINC-IRENE4920\SP\RwB97XD\GenECP\C4H8B1N3\PENASFRA\09-Apr-2024\0\\
 # wb97xd/genecp scrf=(solvent=toluene,pcm) nosymm pop=(chelpg) scfcyc=
 300\\h_meimidazolamine_chelpg\\0,1\C,0,2.703422,1.611682,1.063951\H,0,
 2.821345,2.181269,1.972825\C,0,3.18541,0.368345,0.705877\N,0,1.980376,
 2.08518,0.011181\N,0,2.729795,0.075759,-0.588261\B,0,4.053006,-0.52401
 6,1.569357\C,0,1.30234,3.36181,-0.098458\H,0,1.550065,3.828032,-1.0534
 62\H,0,0.218921,3.237744,-0.0254\H,0,1.637051,4.009628,0.709863\H,0,4.
 356305,-0.148387,2.666756\H,0,4.436563,-1.585999,1.177461\C,0,2.029431

 Normal termination of Gaussian 16 at Tue Apr  9 15:55:23 2024.
