 Gaussian 16, Revision C.02,
 Gaussian 16:  AS64L-G16RevC.02  7-Dec-2021

 ----------------------------------------------------------------------
 # wb97xd/genecp scrf=(solvent=toluene,pcm) nosymm pop=(chelpg) scfcyc=
 300
 ----------------------------------------------------------------------

 --------------------
 h_naphthalene_chelpg
 --------------------
 Symbolic Z-matrix:
 Charge =  0 Multiplicity = 1

                          Input orientation:
 ---------------------------------------------------------------------
 Center     Atomic      Atomic             Coordinates (Angstroms)
 Number     Number       Type             X           Y           Z
 ---------------------------------------------------------------------
      1          6           0       -5.416282   -0.787926    0.185525
      2          6           0       -4.062535   -0.764722    0.008523
      3          6           0       -3.344612    0.438806   -0.044194
      4          6           0       -4.003277    1.677889    0.078508
      5          6           0       -5.410614    1.650456    0.262969
      6          6           0       -6.086353    0.455703    0.315883
      7          1           0       -5.980475   -1.712883    0.225895
      8          6           0       -1.949491    0.280590   -0.224597
      9          6           0       -3.191207    2.837037    0.006420
     10          1           0       -5.953485    2.584736    0.363236
     11          1           0       -7.161038    0.454127    0.458431
     12          6           0       -1.834647    2.703504   -0.174761
     13          6           0       -1.207161    1.436314   -0.289875
     14          1           0       -3.643597    3.819226    0.094346
     15          1           0       -1.220398    3.596797   -0.229477
     16          1           0       -0.130856    1.397836   -0.426645
     17          5           0       -1.608828   -1.282124   -0.280823
     18          7           0       -3.178526   -1.926157   -0.167094
     19          6           0       -3.286121   -2.849586    0.989290
     20          1           0       -4.294891   -3.264491    1.053010
     21          1           0       -2.562620   -3.653747    0.859823
     22          1           0       -3.052507   -2.299841    1.898910
     23          6           0       -3.533331   -2.646564   -1.416875
     24          1           0       -2.830196   -3.466487   -1.558044
     25          1           0       -4.552981   -3.034112   -1.353578
     26          1           0       -3.451159   -1.954950   -2.253427
     27          1           0       -1.144004   -1.682523   -1.325020
     28          1           0       -0.999444   -1.695175    0.681759
 ---------------------------------------------------------------------

 SCF Done:  E(RwB97XD) =  -545.277826660     A.U. after   15 cycles

 Alpha  occ. eigenvalues --  -14.51746 -10.33435 -10.32679 -10.32678 -10.30281
 Alpha  occ. eigenvalues --  -10.30006 -10.29932 -10.29573 -10.28944 -10.28707
 Alpha  occ. eigenvalues --  -10.28392 -10.27717 -10.26482  -6.79717  -1.09028
 Alpha  occ. eigenvalues --   -0.98150  -0.92668  -0.88272  -0.84728  -0.83651
 Alpha  occ. eigenvalues --   -0.82164  -0.77477  -0.72474  -0.71122  -0.67775
 Alpha  occ. eigenvalues --   -0.64663  -0.60793  -0.60495  -0.57965  -0.57720
 Alpha  occ. eigenvalues --   -0.56709  -0.53657  -0.52292  -0.51273  -0.50456
 Alpha  occ. eigenvalues --   -0.49492  -0.49107  -0.48636  -0.47780  -0.46920
 Alpha  occ. eigenvalues --   -0.44375  -0.42265  -0.41906  -0.41122  -0.39101
 Alpha  occ. eigenvalues --   -0.36971  -0.35600  -0.32292  -0.28272
 Alpha virt. eigenvalues --    0.01696   0.03709   0.04211   0.04745   0.05148
 Alpha virt. eigenvalues --    0.05912   0.06312   0.06627   0.07364   0.08170
 Alpha virt. eigenvalues --    0.08282   0.08474   0.08793   0.09618   0.10210

 Mulliken charges:
               1
     1  C   -0.326079
     2  C    0.097297
     3  C    0.058397
     4  C    0.191239
     5  C   -0.368488
     6  C   -0.348055
     7  H    0.209319
     8  C    0.021142
     9  C   -0.054135
    10  H    0.188182
    11  H    0.235514
    12  C   -0.488626
    13  C   -0.461178
    14  H    0.202058
    15  H    0.214386
    16  H    0.243283
    17  B   -0.181135
    18  N    0.072606
    19  C   -0.300176
    20  H    0.161229
    21  H    0.203406
    22  H    0.228934
    23  C   -0.328926
    24  H    0.203166
    25  H    0.169449
    26  H    0.227352
    27  H   -0.037116
    28  H   -0.033042
 Sum of Mulliken charges =  -0.00000

 Dipole moment (field-independent basis, Debye):
    X=             -3.9594    Y=             -2.5582    Z=              0.2063  Tot=              4.7185
 Quadrupole moment (field-independent basis, Debye-Ang):
   XX=            -58.3750   YY=            -68.9548   ZZ=            -87.2648
   XY=             14.3933   XZ=             -0.8580   YZ=              0.3630

 ESP charges:
               1
     1  C   -0.240285
     2  C    0.096554
     3  C    0.007052
     4  C    0.228278
     5  C   -0.281042
     6  C   -0.057585
     7  H    0.165559
     8  C   -0.125000
     9  C   -0.294432
    10  H    0.147247
    11  H    0.103133
    12  C   -0.036682
    13  C   -0.163614
    14  H    0.133441
    15  H    0.091579
    16  H    0.100548
    17  B    0.362866
    18  N    0.036639
    19  C   -0.126792
    20  H    0.064584
    21  H    0.098563
    22  H    0.072669
    23  C   -0.085057
    24  H    0.093481
    25  H    0.054431
    26  H    0.055159
    27  H   -0.251325
    28  H   -0.249969
 Sum of ESP charges =   0.00000

 Normal termination of Gaussian 16 at Wed Apr 10 16:46:37 2024.
